
     Program PWSCF v.7.2 starts on 20Mar2025 at 16:46:20 

     This program is part of the open-source Quantum ESPRESSO suite
     for quantum simulation of materials; please cite
         "P. Giannozzi et al., J. Phys.:Condens. Matter 21 395502 (2009);
         "P. Giannozzi et al., J. Phys.:Condens. Matter 29 465901 (2017);
         "P. Giannozzi et al., J. Chem. Phys. 152 154105 (2020);
          URL http://www.quantum-espresso.org", 
     in publications or presentations arising from this work. More details at
     http://www.quantum-espresso.org/quote

     Parallel version (MPI & OpenMP), running on     480 processor cores
     Number of MPI processes:               240
     Threads/MPI process:                     2

     MPI processes distributed on    10 nodes
     709633 MiB available memory on the printing compute node when the environment starts

     Reading input from LLZO_LaTermination_M0D0035Ha.scf.in

     Current dimensions of program PWSCF are:
     Max number of different atomic species (ntypx) = 10
     Max number of k-points (npk) =  40000
     Max angular momentum in pseudopotentials (lmaxx) =  4

     gamma-point specific algorithms are used

     R & G space division:  proc/nbgrp/npool/nimage =     240
     Subspace diagonalization in iterative solution of the eigenvalue problem:
     one sub-group per band group will be used
     ELPA distributed-memory algorithm (size of sub-group: 11* 11 procs)


     Parallelization info
     --------------------
     sticks:   dense  smooth     PW     G-vecs:    dense   smooth      PW
     Min          50      50     11                18754    18754    2312
     Max          52      52     14                18892    18892    2426
     Sum       12387   12387   3101              4520369  4520369  565145

     Using Slab Decomposition



     bravais-lattice index     =            0
     lattice parameter (alat)  =      21.3406  a.u.
     unit-cell volume          =   39187.6345 (a.u.)^3
     number of atoms/cell      =          288
     number of atomic types    =            4
     number of electrons       =      1800.00
     number of Kohn-Sham states=         1080
     kinetic-energy cutoff     =      90.0000  Ry
     charge density cutoff     =     360.0000  Ry
     scf convergence threshold =      1.0E-09
     mixing beta               =       0.7000
     number of iterations used =            8  plain     mixing
     Exchange-correlation= PBE
                           (   1   4   3   4   0   0   0)

     celldm(1)=  21.340634  celldm(2)=   0.000000  celldm(3)=   0.000000
     celldm(4)=   0.000000  celldm(5)=   0.000000  celldm(6)=   0.000000

     crystal axes: (cart. coord. in units of alat)
               a(1) = (   1.000000   0.000000   0.000000 )  
               a(2) = (  -0.316403   0.948624   0.000000 )  
               a(3) = (   0.000000   0.000000   4.250429 )  

     reciprocal axes: (cart. coord. in units 2 pi/alat)
               b(1) = (  1.000000  0.333539 -0.000000 )  
               b(2) = (  0.000000  1.054158  0.000000 )  
               b(3) = (  0.000000 -0.000000  0.235270 )  


     PseudoPot. # 1 for Li read from file:
     ./Li.upf
     MD5 check sum: 36b212ba84a3343c64836813e23b5a31
     Pseudo is Norm-conserving, Zval =  3.0
     Generated using ONCVPSP code by D. R. Hamann
     Using radial grid of 1938 points,  4 beta functions with: 
                l(1) =   0
                l(2) =   0
                l(3) =   1
                l(4) =   1

     PseudoPot. # 2 for La read from file:
     ./La.upf
     MD5 check sum: 94ac605e04917972278bb538f6bd832e
     Pseudo is Norm-conserving + core correction, Zval = 11.0
     Generated using ONCVPSP code by D. R. Hamann
     Using radial grid of 1816 points,  8 beta functions with: 
                l(1) =   0
                l(2) =   0
                l(3) =   1
                l(4) =   1
                l(5) =   2
                l(6) =   2
                l(7) =   3
                l(8) =   3

     PseudoPot. # 3 for Zr read from file:
     ./Zr.upf
     MD5 check sum: 7356faafce8c11995bde75aded518977
     Pseudo is Norm-conserving + core correction, Zval = 12.0
     Generated using ONCVPSP code by D. R. Hamann
     Using radial grid of 1612 points,  6 beta functions with: 
                l(1) =   0
                l(2) =   0
                l(3) =   1
                l(4) =   1
                l(5) =   2
                l(6) =   2

     PseudoPot. # 4 for O  read from file:
     ./O.upf
     MD5 check sum: f9f408bc39120c85e44a0bb1c57dbd9f
     Pseudo is Norm-conserving + core correction, Zval =  6.0
     Generated using ONCVPSP code by D. R. Hamann
     Using radial grid of  934 points,  5 beta functions with: 
                l(1) =   0
                l(2) =   0
                l(3) =   1
                l(4) =   1
                l(5) =   2

     atomic species   valence    mass     pseudopotential
        Li             3.00     6.90000     Li( 1.00)
        La            11.00   139.00000     La( 1.00)
        Zr            12.00    91.22400     Zr( 1.00)
        O              6.00    16.00000     O ( 1.00)

     No symmetry found



   Cartesian axes

     site n.     atom                  positions (alat units)
         1           Li  tau(   1) = (  -0.0401741   0.5314518   0.9528658  )
         2           Li  tau(   2) = (   0.1309308   0.0696081   0.9385469  )
         3           Li  tau(   3) = (   0.8538406   0.0434466   0.9666809  )
         4           Li  tau(   4) = (   0.7118945   0.5489094   1.0005721  )
         5           Li  tau(   5) = (  -0.2409594   0.7769992   1.0208612  )
         6           Li  tau(   6) = (   0.3459555   0.9486075   1.0723897  )
         7           Li  tau(   7) = (   0.1356213   0.5221967   1.0728849  )
         8           Li  tau(   8) = (  -0.1896788   0.9477617   1.1409935  )
         9           Li  tau(   9) = (   0.6170900   0.5210270   1.1890965  )
        10           Li  tau(  10) = (   0.2309895   0.6668810   1.2076216  )
        11           Li  tau(  11) = (   0.2165960   0.9161132   1.2242957  )
        12           Li  tau(  12) = (   0.4182676   0.5328995   1.2974048  )
        13           Li  tau(  13) = (   0.2942079   0.0022691   1.2965237  )
        14           Li  tau(  14) = (   0.1771489   0.4655346   1.2882004  )
        15           Li  tau(  15) = (   0.6393455   0.1375649   1.3415002  )
        16           Li  tau(  16) = (   0.1335419   0.1468095   1.3351564  )
        17           Li  tau(  17) = (   0.6320857   0.3742104   1.3490262  )
        18           Li  tau(  18) = (   0.0399456   0.3312435   1.4167569  )
        19           Li  tau(  19) = (   0.8171725   0.2454882   1.4305787  )
        20           Li  tau(  20) = (   0.5613585   0.5676589   1.4466564  )
        21           Li  tau(  21) = (  -0.1079433   0.8954757   1.5056956  )
        22           Li  tau(  22) = (   0.7056349   0.1025367   1.5792814  )
        23           Li  tau(  23) = (   0.0320763   0.4625938   1.6111084  )
        24           Li  tau(  24) = (  -0.2553978   0.7734398   1.6148849  )
        25           Li  tau(  25) = (   0.5413538   0.6917385   1.6240346  )
        26           Li  tau(  26) = (  -0.0635491   0.6739187   1.6619951  )
        27           Li  tau(  27) = (  -0.0532046   0.8916387   1.7146366  )
        28           Li  tau(  28) = (   0.4428583   0.8747493   1.7009824  )
        29           Li  tau(  29) = (   0.5612555   0.0651713   1.7472496  )
        30           Li  tau(  30) = (   0.4193567   0.5433533   1.7379959  )
        31           Li  tau(  31) = (   0.2128411   0.4645996   1.7790350  )
        32           Li  tau(  32) = (   0.3581659   0.1027038   1.8261314  )
        33           Li  tau(  33) = (   0.3737168   0.3226177   1.8347685  )
        34           Li  tau(  34) = (  -0.0137717   0.4956248   1.8308839  )
        35           Li  tau(  35) = (   0.7503689   0.0750828   1.8671986  )
        36           Li  tau(  36) = (   0.4481022   0.4998232   1.9550951  )
        37           Li  tau(  37) = (   0.2360226   0.0770414   2.0097381  )
        38           Li  tau(  38) = (   0.8478227   0.2280218   2.0167662  )
        39           Li  tau(  39) = (  -0.1413950   0.4617279   2.0265256  )
        40           Li  tau(  40) = (   0.0279178   0.0844800   2.0985060  )
        41           Li  tau(  41) = (   0.6418812   0.4963596   2.1045683  )
        42           Li  tau(  42) = (   0.8006875   0.0225167   2.1037308  )
        43           Li  tau(  43) = (  -0.0415310   0.6284323   2.1538031  )
        44           Li  tau(  44) = (   0.4593846   0.6267310   2.1528822  )
        45           Li  tau(  45) = (  -0.0515820   0.8631856   2.1612773  )
        46           Li  tau(  46) = (   0.3581290   0.8224719   2.2309911  )
        47           Li  tau(  47) = (   0.1405007   0.7382607   2.2406643  )
        48           Li  tau(  48) = (   0.1905771   0.1113115   2.2480655  )
        49           Li  tau(  49) = (   0.5237185   0.4442202   2.3019042  )
        50           Li  tau(  50) = (   0.0237434   0.5980741   2.3881179  )
        51           Li  tau(  51) = (   0.6650222   0.0049314   2.4262732  )
        52           Li  tau(  52) = (   0.3814689   0.3172837   2.4230060  )
        53           Li  tau(  53) = (   0.1743810   0.2345610   2.4327829  )
        54           Li  tau(  54) = (   0.5710180   0.2062794   2.4867857  )
        55           Li  tau(  55) = (   0.5744325   0.4303424   2.5199329  )
        56           Li  tau(  56) = (   0.0740953   0.4177703   2.5111206  )
        57           Li  tau(  57) = (  -0.1187133   0.5610496   2.5584903  )
        58           Li  tau(  58) = (   0.0519769   0.0928062   2.5487406  )
        59           Li  tau(  59) = (   0.8445231   0.0127362   2.5939746  )
        60           Li  tau(  60) = (   0.6735025   0.5957282   2.6343368  )
        61           Li  tau(  61) = (   0.6905210   0.8193168   2.6413502  )
        62           Li  tau(  62) = (   0.6141528   0.0352054   2.6511848  )
        63           Li  tau(  63) = (   0.0704674   0.5661842   2.6824947  )
        64           Li  tau(  64) = (   0.0798383   0.0473235   2.7647392  )
        65           Li  tau(  65) = (   0.5499762   0.5657113   2.8171637  )
        66           Li  tau(  66) = (   0.1662536   0.7290179   2.8267159  )
        67           Li  tau(  67) = (   0.4855838   0.0094029   2.8481367  )
        68           Li  tau(  68) = (   0.3401180   0.5827416   2.9065538  )
        69           Li  tau(  69) = (   0.2652705   0.0454758   2.9235969  )
        70           Li  tau(  70) = (   0.1217015   0.5209083   2.9105600  )
        71           Li  tau(  71) = (   0.5876259   0.1828756   2.9787643  )
        72           Li  tau(  72) = (   0.0617813   0.1805987   2.9756636  )
        73           Li  tau(  73) = (   0.6004570   0.4102551   2.9836354  )
        74           Li  tau(  74) = (  -0.0044596   0.3772326   3.0327479  )
        75           Li  tau(  75) = (   0.7948367   0.3024377   3.0594680  )
        76           Li  tau(  76) = (   0.5091677   0.6011066   3.0432121  )
        77           Li  tau(  77) = (  -0.1997955   0.9442241   3.0930330  )
        78           Li  tau(  78) = (   0.6580205   0.1960587   3.1845357  )
        79           Li  tau(  79) = (  -0.0412607   0.5050288   3.2200147  )
        80           Li  tau(  80) = (   0.6619108   0.8213569   3.2164610  )
        81           Li  tau(  81) = (   0.4667152   0.7100722   3.2487273  )
        82           Li  tau(  82) = (  -0.1334777   0.7277058   3.2617371  )
        83           Li  tau(  83) = (   0.1972213   0.0072415   3.3132217  )
        84           Li  tau(  84) = (   0.3841945   0.9459370   3.2958967  )
        85           La  tau(  85) = (   0.2479666   0.7487271   0.9240042  )
        86           La  tau(  86) = (   0.3750830   0.1032760   1.0320986  )
        87           La  tau(  87) = (   0.4108498   0.4413654   1.0291867  )
        88           La  tau(  88) = (   0.8806724   0.0952360   1.2177249  )
        89           La  tau(  89) = (  -0.1115144   0.4403914   1.2069898  )
        90           La  tau(  90) = (   0.3760646   0.2649240   1.3186865  )
        91           La  tau(  91) = (   0.7174323   0.7529258   1.3274736  )
        92           La  tau(  92) = (   0.3852939   0.8033441   1.4174621  )
        93           La  tau(  93) = (   0.0478718   0.6837298   1.4086100  )
        94           La  tau(  94) = (   0.5387887   0.3299230   1.6169527  )
        95           La  tau(  95) = (   0.1996293   0.2146087   1.6222216  )
        96           La  tau(  96) = (   0.2034911   0.7447059   1.7210685  )
        97           La  tau(  97) = (   0.8639961   0.2787414   1.7232570  )
        98           La  tau(  98) = (   0.7018434   0.5770634   1.8232028  )
        99           La  tau(  99) = (  -0.2970985   0.9351959   1.8305622  )
       100           La  tau( 100) = (   0.1948814   0.5804426   2.0269246  )
       101           La  tau( 101) = (   0.2008393   0.9361509   2.0269931  )
       102           La  tau( 102) = (   0.6942969   0.7614671   2.1289111  )
       103           La  tau( 103) = (   0.3560223   0.2917327   2.1280650  )
       104           La  tau( 104) = (   0.0159556   0.3485602   2.2304904  )
       105           La  tau( 105) = (   0.6801921   0.2308445   2.2312122  )
       106           La  tau( 106) = (  -0.1442088   0.8263428   2.4265752  )
       107           La  tau( 107) = (   0.5166062   0.7090018   2.4331518  )
       108           La  tau( 108) = (   0.8340010   0.2908115   2.5370335  )
       109           La  tau( 109) = (   0.1818851   0.7690818   2.5317492  )
       110           La  tau( 110) = (   0.3321930   0.1209856   2.6350903  )
       111           La  tau( 111) = (   0.3348582   0.4773195   2.6399246  )
       112           La  tau( 112) = (   0.8231528   0.1229007   2.8479358  )
       113           La  tau( 113) = (   0.8296707   0.4821995   2.8374207  )
       114           La  tau( 114) = (   0.3249933   0.3055389   2.9378795  )
       115           La  tau( 115) = (   0.6753111   0.7805866   2.9234142  )
       116           La  tau( 116) = (   0.3308863   0.8479971   3.0456944  )
       117           La  tau( 117) = (  -0.0074688   0.7242774   3.0356819  )
       118           La  tau( 118) = (   0.4847919   0.3992438   3.2352228  )
       119           La  tau( 119) = (   0.1520868   0.2500207   3.2277706  )
       120           La  tau( 120) = (   0.1491760   0.7643674   3.3264251  )
       121           Zr  tau( 121) = (   0.6377188   0.2615917   1.1116843  )
       122           Zr  tau( 122) = (   0.1174388   0.2619688   1.0910098  )
       123           Zr  tau( 123) = (   0.4878526   0.7432788   1.1127195  )
       124           Zr  tau( 124) = (  -0.0118360   0.7402248   1.0886267  )
       125           Zr  tau( 125) = (   0.9493535   0.0392864   1.5232742  )
       126           Zr  tau( 126) = (   0.7958436   0.5120100   1.5176883  )
       127           Zr  tau( 127) = (   0.4474616   0.0311370   1.5200999  )
       128           Zr  tau( 128) = (   0.2925957   0.5079530   1.5183259  )
       129           Zr  tau( 129) = (  -0.0498924   0.7555169   1.9267789  )
       130           Zr  tau( 130) = (   0.4498379   0.7560736   1.9266420  )
       131           Zr  tau( 131) = (   0.1077390   0.2831502   1.9269117  )
       132           Zr  tau( 132) = (   0.6092200   0.2826131   1.9249006  )
       133           Zr  tau( 133) = (   0.2663741   0.5278757   2.3322722  )
       134           Zr  tau( 134) = (   0.4263547   0.0549622   2.3305043  )
       135           Zr  tau( 135) = (   0.7661909   0.5279926   2.3318425  )
       136           Zr  tau( 136) = (   0.9236358   0.0541269   2.3323735  )
       137           Zr  tau( 137) = (   0.5807740   0.2999254   2.7412308  )
       138           Zr  tau( 138) = (   0.0797148   0.2994099   2.7383551  )
       139           Zr  tau( 139) = (   0.4219125   0.7757587   2.7384962  )
       140           Zr  tau( 140) = (  -0.0711412   0.7779923   2.7326979  )
       141           Zr  tau( 141) = (   0.8838133   0.0895808   3.1700434  )
       142           Zr  tau( 142) = (   0.7357321   0.5547446   3.1472268  )
       143           Zr  tau( 143) = (   0.3918753   0.0677421   3.1653210  )
       144           Zr  tau( 144) = (   0.2374013   0.5399984   3.1427109  )
       145           O   tau( 145) = (   0.4273855   0.8436099   0.9651490  )
       146           O   tau( 146) = (   0.0824292   0.6442089   0.9516886  )
       147           O   tau( 147) = (   0.5045727   0.2652518   0.9807854  )
       148           O   tau( 148) = (   0.2239161   0.2105859   0.9506815  )
       149           O   tau( 149) = (  -0.1014333   0.8834309   1.0067566  )
       150           O   tau( 150) = (   0.5577909   0.5941607   1.0322859  )
       151           O   tau( 151) = (   0.7494457   0.1356069   1.0524431  )
       152           O   tau( 152) = (   0.0171743   0.4030213   1.0406726  )
       153           O   tau( 153) = (   0.7280356   0.4147732   1.0831274  )
       154           O   tau( 154) = (   0.0126613   0.1121503   1.0480922  )
       155           O   tau( 155) = (   0.3212924   0.6382680   1.0707820  )
       156           O   tau( 156) = (   0.1522364   0.8556475   1.0656204  )
       157           O   tau( 157) = (  -0.1515598   0.6334951   1.0448072  )
       158           O   tau( 158) = (   0.6471026   0.8304250   1.1361875  )
       159           O   tau( 159) = (   0.2508743   0.3897829   1.1545287  )
       160           O   tau( 160) = (   0.5160530   0.1361178   1.1966360  )
       161           O   tau( 161) = (   0.5073038   0.3939765   1.2038700  )
       162           O   tau( 162) = (   0.2406841   0.1341097   1.1941272  )
       163           O   tau( 163) = (   0.3894770   0.8738009   1.2168197  )
       164           O   tau( 164) = (   0.0679953   0.6069637   1.2057346  )
       165           O   tau( 165) = (   0.0148968   0.2664882   1.2550713  )
       166           O   tau( 166) = (   0.7419805   0.2610841   1.2740031  )
       167           O   tau( 167) = (  -0.0793091   0.7998422   1.2561650  )
       168           O   tau( 168) = (   0.5142695   0.6692848   1.2867600  )
       169           O   tau( 169) = (   0.7120629   0.5281451   1.3489026  )
       170           O   tau( 170) = (   0.0344042   0.0151908   1.3568875  )
       171           O   tau( 171) = (   0.2666255   0.6046510   1.3601069  )
       172           O   tau( 172) = (   0.1714062   0.8648654   1.3751109  )
       173           O   tau( 173) = (   0.7887906   0.0709345   1.4308889  )
       174           O   tau( 174) = (  -0.0456162   0.4766592   1.4253234  )
       175           O   tau( 175) = (   0.2858863   0.0920937   1.4427768  )
       176           O   tau( 176) = (   0.4538073   0.4384712   1.4438990  )
       177           O   tau( 177) = (   0.2098197   0.3553652   1.4401462  )
       178           O   tau( 178) = (   0.5301429   0.1870787   1.4556395  )
       179           O   tau( 179) = (  -0.1547780   0.6971069   1.5008447  )
       180           O   tau( 180) = (   0.5945490   0.8028747   1.5065814  )
       181           O   tau( 181) = (  -0.0068685   0.2205628   1.5383633  )
       182           O   tau( 182) = (   0.7426216   0.3340107   1.5459333  )
       183           O   tau( 183) = (   0.0399908   0.8296294   1.5899910  )
       184           O   tau( 184) = (   0.3789678   0.6570843   1.5930099  )
       185           O   tau( 185) = (   0.2891978   0.9158865   1.6017976  )
       186           O   tau( 186) = (   0.1382820   0.5859127   1.5895691  )
       187           O   tau( 187) = (   0.6362398   0.5526996   1.6108003  )
       188           O   tau( 188) = (   0.1055337   0.0029184   1.6240961  )
       189           O   tau( 189) = (   0.4065014   0.1404890   1.6685327  )
       190           O   tau( 190) = (   0.3276682   0.4006998   1.6706198  )
       191           O   tau( 191) = (   0.8574166   0.0606502   1.6871912  )
       192           O   tau( 192) = (  -0.1206837   0.5058734   1.6873595  )
       193           O   tau( 193) = (   0.0748446   0.3609066   1.7569096  )
       194           O   tau( 194) = (   0.6583611   0.2018628   1.7601440  )
       195           O   tau( 195) = (  -0.1617902   0.7586617   1.7750471  )
       196           O   tau( 196) = (   0.5664267   0.7537696   1.7783762  )
       197           O   tau( 197) = (   0.5255665   0.4202697   1.8256546  )
       198           O   tau( 198) = (   0.1941281   0.1421395   1.8360412  )
       199           O   tau( 199) = (   0.0728304   0.6332688   1.8516382  )
       200           O   tau( 200) = (   0.3375721   0.8844472   1.8456956  )
       201           O   tau( 201) = (   0.0656870   0.8861457   1.8550115  )
       202           O   tau( 202) = (   0.3354542   0.6204574   1.8600583  )
       203           O   tau( 203) = (  -0.0472477   0.1800914   1.9001238  )
       204           O   tau( 204) = (   0.7686233   0.3809156   1.9053961  )
       205           O   tau( 205) = (   0.4483865   0.1861070   1.9411677  )
       206           O   tau( 206) = (   0.2649960   0.3880809   1.9432240  )
       207           O   tau( 207) = (   0.5709288   0.8839403   1.9944713  )
       208           O   tau( 208) = (  -0.1673537   0.6276893   1.9977306  )
       209           O   tau( 209) = (  -0.1654682   0.8820626   2.0083693  )
       210           O   tau( 210) = (   0.5600381   0.6235178   2.0052012  )
       211           O   tau( 211) = (   0.0245008   0.4227645   2.0207037  )
       212           O   tau( 212) = (   0.6934143   0.1416167   2.0188874  )
       213           O   tau( 213) = (   0.3325048   0.7614689   2.0732631  )
       214           O   tau( 214) = (   0.0600008   0.7567758   2.0811248  )
       215           O   tau( 215) = (   0.5600722   0.3542588   2.0917822  )
       216           O   tau( 216) = (   0.1457504   0.2075857   2.0956848  )
       217           O   tau( 217) = (   0.3424480   0.0663831   2.1616537  )
       218           O   tau( 218) = (   0.3499709   0.5045145   2.1651137  )
       219           O   tau( 219) = (   0.8907038   0.1580552   2.1773262  )
       220           O   tau( 220) = (   0.8085045   0.4187644   2.1847239  )
       221           O   tau( 221) = (   0.1059741   0.5637683   2.2383457  )
       222           O   tau( 222) = (   0.5853912   0.0192002   2.2375818  )
       223           O   tau( 223) = (   0.6054538   0.5901802   2.2525974  )
       224           O   tau( 224) = (  -0.2356788   0.9335534   2.2509666  )
       225           O   tau( 225) = (   0.5235546   0.8499673   2.2620540  )
       226           O   tau( 226) = (  -0.1502241   0.6836438   2.2648068  )
       227           O   tau( 227) = (   0.4759516   0.2367742   2.3122298  )
       228           O   tau( 228) = (   0.2252583   0.3452255   2.3158339  )
       229           O   tau( 229) = (   0.3089769   0.7106516   2.3507560  )
       230           O   tau( 230) = (   0.0598438   0.8236304   2.3555445  )
       231           O   tau( 231) = (   0.6748381   0.3761921   2.3982177  )
       232           O   tau( 232) = (   0.0096835   0.2052172   2.4050826  )
       233           O   tau( 233) = (  -0.0767336   0.4627083   2.4129477  )
       234           O   tau( 234) = (   0.7684597   0.1308599   2.4072604  )
       235           O   tau( 235) = (   0.2654941   0.0921704   2.4220922  )
       236           O   tau( 236) = (   0.4239097   0.4926305   2.4310885  )
       237           O   tau( 237) = (   0.7246502   0.6382534   2.4789915  )
       238           O   tau( 238) = (   0.6455974   0.8977877   2.4841063  )
       239           O   tau( 239) = (   0.1746452   0.5506560   2.4963779  )
       240           O   tau( 240) = (   0.5090804   0.0462714   2.5006341  )
       241           O   tau( 241) = (   0.3895869   0.8531902   2.5696702  )
       242           O   tau( 242) = (  -0.0222483   0.6973276   2.5697583  )
       243           O   tau( 243) = (   0.4682703   0.2986710   2.5875376  )
       244           O   tau( 244) = (   0.1963774   0.2930768   2.5898446  )
       245           O   tau( 245) = (  -0.1556603   0.9168492   2.6368487  )
       246           O   tau( 246) = (   0.5093213   0.6349919   2.6490719  )
       247           O   tau( 247) = (   0.6988948   0.1762794   2.6637520  )
       248           O   tau( 248) = (  -0.0306307   0.4300256   2.6567819  )
       249           O   tau( 249) = (   0.6941465   0.4300435   2.6652903  )
       250           O   tau( 250) = (  -0.0348807   0.1650300   2.6716964  )
       251           O   tau( 251) = (   0.2682703   0.6705035   2.7126025  )
       252           O   tau( 252) = (   0.0876737   0.8760775   2.7198171  )
       253           O   tau( 253) = (   0.7674728   0.6823684   2.7451133  )
       254           O   tau( 254) = (   0.5784280   0.8815986   2.7516547  )
       255           O   tau( 255) = (   0.2016423   0.4283146   2.8021403  )
       256           O   tau( 256) = (   0.4631313   0.1753190   2.8217422  )
       257           O   tau( 257) = (   0.4604479   0.4266897   2.8158828  )
       258           O   tau( 258) = (   0.1893437   0.1692683   2.8197750  )
       259           O   tau( 259) = (   0.3341957   0.9123330   2.8338235  )
       260           O   tau( 260) = (   0.0109518   0.6377609   2.8309482  )
       261           O   tau( 261) = (  -0.0405151   0.3044934   2.8830219  )
       262           O   tau( 262) = (   0.6919956   0.3036649   2.8916371  )
       263           O   tau( 263) = (  -0.1219692   0.8480587   2.8995149  )
       264           O   tau( 264) = (   0.4601571   0.7057095   2.9116319  )
       265           O   tau( 265) = (   0.6610157   0.5647212   2.9590270  )
       266           O   tau( 266) = (   0.9721176   0.0366668   2.9864638  )
       267           O   tau( 267) = (   0.2062559   0.6531552   2.9902705  )
       268           O   tau( 268) = (   0.1173061   0.9087102   3.0123843  )
       269           O   tau( 269) = (   0.7308552   0.1106778   3.0466528  )
       270           O   tau( 270) = (  -0.1039457   0.5145492   3.0462299  )
       271           O   tau( 271) = (   0.2352366   0.1314950   3.0693376  )
       272           O   tau( 272) = (   0.3974793   0.4778629   3.0590249  )
       273           O   tau( 273) = (   0.1584567   0.3955862   3.0575547  )
       274           O   tau( 274) = (   0.4783659   0.2212572   3.1116490  )
       275           O   tau( 275) = (  -0.2250217   0.7449031   3.1155313  )
       276           O   tau( 276) = (   0.5003556   0.8579194   3.1855030  )
       277           O   tau( 277) = (  -0.0398109   0.2555246   3.1385110  )
       278           O   tau( 278) = (   0.6721747   0.3781719   3.1448816  )
       279           O   tau( 279) = (  -0.0128929   0.8464739   3.2354956  )
       280           O   tau( 280) = (   0.3073175   0.6932600   3.2299859  )
       281           O   tau( 281) = (   0.2247218   0.9322135   3.2444881  )
       282           O   tau( 282) = (   0.0815148   0.6133238   3.2143656  )
       283           O   tau( 283) = (   0.5648201   0.5886521   3.2126606  )
       284           O   tau( 284) = (   0.0469442   0.0332460   3.2464786  )
       285           O   tau( 285) = (   0.3020974   0.1360316   3.3077066  )
       286           O   tau( 286) = (   0.2794488   0.4199818   3.2760468  )
       287           O   tau( 287) = (   0.7704661   0.1392517   3.2929744  )
       288           O   tau( 288) = (  -0.1679624   0.5739047   3.2927061  )

     number of k points=     1  Fermi-Dirac smearing, width (Ry)=  0.0000
                       cart. coord. in units 2pi/alat
        k(    1) = (   0.0000000   0.0000000   0.0000000), wk =   2.0000000

     Dense  grid:  2260185 G-vectors     FFT dimensions: ( 135, 135, 576)

     Estimated max dynamical RAM per process >     229.15 MB

     Estimated total dynamical RAM >      53.71 GB

     Initial potential from superposition of free atoms

     starting charge    1799.2393, renormalised to    1800.0000

     negative rho (up, down):  4.061E-04 0.000E+00

     Adding external electric field

     Computed dipole along edir(3) : 
        Dipole               -0.0004 Ry au,         -0.0010 Debye
        Dipole field         -0.0000 Ry au, 

        E field amplitude [Ha a.u.]: -3.5000E-03
        Potential amp.       -0.5079 Ry
        Total length         72.5655 bohr

     Starting wfcs are 1344 atomic wfcs

     total cpu time spent up to now is        5.7 secs

     Self-consistent Calculation

     iteration #  1     ecut=    90.00 Ry     beta= 0.70
     Davidson diagonalization with overlap
     ethr =  1.00E-02,  avg # of iterations =  2.0

     negative rho (up, down):  1.128E-04 0.000E+00

     Adding external electric field

     Computed dipole along edir(3) : 
        Dipole               -8.7562 Ry au,        -22.2560 Debye
        Dipole field         -0.0028 Ry au, 

        E field amplitude [Ha a.u.]: -3.5000E-03
        Potential amp.       -0.1005 Ry
        Total length         72.5655 bohr


     total cpu time spent up to now is       12.6 secs

     total energy              =  -10936.74529186 Ry
     estimated scf accuracy    <      84.67695983 Ry

     iteration #  2     ecut=    90.00 Ry     beta= 0.70
     Davidson diagonalization with overlap
     ethr =  4.70E-03,  avg # of iterations = 11.0

     Adding external electric field

     Computed dipole along edir(3) : 
        Dipole               63.7252 Ry au,        161.9733 Debye
        Dipole field          0.0204 Ry au, 

        E field amplitude [Ha a.u.]: -3.5000E-03
        Potential amp.       -3.4737 Ry
        Total length         72.5655 bohr


     total cpu time spent up to now is       26.2 secs

     total energy              =  -10839.23549424 Ry
     estimated scf accuracy    <     703.70303506 Ry

     iteration #  3     ecut=    90.00 Ry     beta= 0.70
     Davidson diagonalization with overlap
     ethr =  4.70E-03,  avg # of iterations = 11.0

     Adding external electric field

     Computed dipole along edir(3) : 
        Dipole               -5.0694 Ry au,        -12.8852 Debye
        Dipole field         -0.0016 Ry au, 

        E field amplitude [Ha a.u.]: -3.5000E-03
        Potential amp.       -0.2720 Ry
        Total length         72.5655 bohr


     total cpu time spent up to now is       48.0 secs

     total energy              =  -10290.66458936 Ry
     estimated scf accuracy    <  275605.24420986 Ry

     iteration #  4     ecut=    90.00 Ry     beta= 0.70
     Davidson diagonalization with overlap
     ethr =  4.70E-03,  avg # of iterations = 19.0

     Adding external electric field

     Computed dipole along edir(3) : 
        Dipole               -5.9007 Ry au,        -14.9982 Debye
        Dipole field         -0.0019 Ry au, 

        E field amplitude [Ha a.u.]: -3.5000E-03
        Potential amp.       -0.2333 Ry
        Total length         72.5655 bohr


     total cpu time spent up to now is       76.4 secs

     total energy              =  -10771.90900305 Ry
     estimated scf accuracy    <   19361.78392293 Ry

     iteration #  5     ecut=    90.00 Ry     beta= 0.70
     Davidson diagonalization with overlap
     ethr =  4.70E-03,  avg # of iterations = 12.0

     Adding external electric field

     Computed dipole along edir(3) : 
        Dipole               -3.3127 Ry au,         -8.4199 Debye
        Dipole field         -0.0011 Ry au, 

        E field amplitude [Ha a.u.]: -3.5000E-03
        Potential amp.       -0.3538 Ry
        Total length         72.5655 bohr


     total cpu time spent up to now is       92.6 secs

     total energy              =  -10938.71482787 Ry
     estimated scf accuracy    <     437.28154568 Ry

     iteration #  6     ecut=    90.00 Ry     beta= 0.70
     Davidson diagonalization with overlap
     ethr =  4.70E-03,  avg # of iterations =  5.0

     Adding external electric field

     Computed dipole along edir(3) : 
        Dipole               -4.4731 Ry au,        -11.3696 Debye
        Dipole field         -0.0014 Ry au, 

        E field amplitude [Ha a.u.]: -3.5000E-03
        Potential amp.       -0.2998 Ry
        Total length         72.5655 bohr


     total cpu time spent up to now is      102.5 secs

     total energy              =  -10978.06998982 Ry
     estimated scf accuracy    <      45.61036831 Ry

     iteration #  7     ecut=    90.00 Ry     beta= 0.70
     Davidson diagonalization with overlap
     ethr =  2.53E-03,  avg # of iterations =  6.0

     Adding external electric field

     Computed dipole along edir(3) : 
        Dipole               -3.1469 Ry au,         -7.9987 Debye
        Dipole field         -0.0010 Ry au, 

        E field amplitude [Ha a.u.]: -3.5000E-03
        Potential amp.       -0.3615 Ry
        Total length         72.5655 bohr


     total cpu time spent up to now is      109.4 secs

     total energy              =  -10981.16638962 Ry
     estimated scf accuracy    <       9.87689421 Ry

     iteration #  8     ecut=    90.00 Ry     beta= 0.70
     Davidson diagonalization with overlap
     ethr =  5.49E-04,  avg # of iterations = 10.0

     Adding external electric field

     Computed dipole along edir(3) : 
        Dipole               -3.4433 Ry au,         -8.7520 Debye
        Dipole field         -0.0011 Ry au, 

        E field amplitude [Ha a.u.]: -3.5000E-03
        Potential amp.       -0.3477 Ry
        Total length         72.5655 bohr


     total cpu time spent up to now is      117.8 secs

     total energy              =  -10980.65235723 Ry
     estimated scf accuracy    <       5.41906194 Ry

     iteration #  9     ecut=    90.00 Ry     beta= 0.70
     Davidson diagonalization with overlap
     ethr =  3.01E-04,  avg # of iterations = 11.0

     negative rho (up, down):  4.404E-05 0.000E+00

     Adding external electric field

     Computed dipole along edir(3) : 
        Dipole               -3.6363 Ry au,         -9.2426 Debye
        Dipole field         -0.0012 Ry au, 

        E field amplitude [Ha a.u.]: -3.5000E-03
        Potential amp.       -0.3387 Ry
        Total length         72.5655 bohr


     total cpu time spent up to now is      128.7 secs

     total energy              =  -10980.29053072 Ry
     estimated scf accuracy    <       2.52612953 Ry

     iteration # 10     ecut=    90.00 Ry     beta= 0.70
     Davidson diagonalization with overlap
     ethr =  1.40E-04,  avg # of iterations = 19.0

     negative rho (up, down):  3.733E-04 0.000E+00

     Adding external electric field

     Computed dipole along edir(3) : 
        Dipole               -3.8800 Ry au,         -9.8621 Debye
        Dipole field         -0.0012 Ry au, 

        E field amplitude [Ha a.u.]: -3.5000E-03
        Potential amp.       -0.3274 Ry
        Total length         72.5655 bohr


     total cpu time spent up to now is      139.4 secs

     total energy              =  -10980.23000638 Ry
     estimated scf accuracy    <       1.08071973 Ry

     iteration # 11     ecut=    90.00 Ry     beta= 0.70
     Davidson diagonalization with overlap
     ethr =  6.00E-05,  avg # of iterations = 18.0

     negative rho (up, down):  4.817E-04 0.000E+00

     Adding external electric field

     Computed dipole along edir(3) : 
        Dipole               -4.4848 Ry au,        -11.3992 Debye
        Dipole field         -0.0014 Ry au, 

        E field amplitude [Ha a.u.]: -3.5000E-03
        Potential amp.       -0.2992 Ry
        Total length         72.5655 bohr


     total cpu time spent up to now is      155.0 secs

     total energy              =  -10980.34086951 Ry
     estimated scf accuracy    <       0.57458248 Ry

     iteration # 12     ecut=    90.00 Ry     beta= 0.70
     Davidson diagonalization with overlap
     c_bands:  1 eigenvalues not converged
     ethr =  3.19E-05,  avg # of iterations = 20.0

     negative rho (up, down):  4.812E-04 0.000E+00

     Adding external electric field

     Computed dipole along edir(3) : 
        Dipole               -5.2038 Ry au,        -13.2268 Debye
        Dipole field         -0.0017 Ry au, 

        E field amplitude [Ha a.u.]: -3.5000E-03
        Potential amp.       -0.2658 Ry
        Total length         72.5655 bohr


     total cpu time spent up to now is      167.4 secs

     total energy              =  -10980.35484444 Ry
     estimated scf accuracy    <       0.42896134 Ry

     iteration # 13     ecut=    90.00 Ry     beta= 0.70
     Davidson diagonalization with overlap
     ethr =  2.38E-05,  avg # of iterations = 57.0

     negative rho (up, down):  1.892E-04 0.000E+00

     Adding external electric field

     Computed dipole along edir(3) : 
        Dipole               -6.0188 Ry au,        -15.2983 Debye
        Dipole field         -0.0019 Ry au, 

        E field amplitude [Ha a.u.]: -3.5000E-03
        Potential amp.       -0.2278 Ry
        Total length         72.5655 bohr


     total cpu time spent up to now is      191.3 secs

     total energy              =  -10980.28273296 Ry
     estimated scf accuracy    <       0.34524138 Ry

     iteration # 14     ecut=    90.00 Ry     beta= 0.70
     Davidson diagonalization with overlap
     ethr =  1.92E-05,  avg # of iterations = 50.0

     negative rho (up, down):  1.621E-03 0.000E+00

     Adding external electric field

     Computed dipole along edir(3) : 
        Dipole               -7.1314 Ry au,        -18.1262 Debye
        Dipole field         -0.0023 Ry au, 

        E field amplitude [Ha a.u.]: -3.5000E-03
        Potential amp.       -0.1761 Ry
        Total length         72.5655 bohr


     total cpu time spent up to now is      222.9 secs

     total energy              =  -10980.24476710 Ry
     estimated scf accuracy    <       0.14564022 Ry

     iteration # 15     ecut=    90.00 Ry     beta= 0.70
     Davidson diagonalization with overlap
     ethr =  8.09E-06,  avg # of iterations = 42.0

     negative rho (up, down):  6.433E-04 0.000E+00

     Adding external electric field

     Computed dipole along edir(3) : 
        Dipole               -3.8166 Ry au,         -9.7008 Debye
        Dipole field         -0.0012 Ry au, 

        E field amplitude [Ha a.u.]: -3.5000E-03
        Potential amp.       -0.3303 Ry
        Total length         72.5655 bohr


     total cpu time spent up to now is      261.2 secs

     total energy              =  -10980.24861884 Ry
     estimated scf accuracy    <       0.08794838 Ry

     iteration # 16     ecut=    90.00 Ry     beta= 0.70
     Davidson diagonalization with overlap
     c_bands:  4 eigenvalues not converged
     ethr =  4.89E-06,  avg # of iterations = 40.0

     negative rho (up, down):  3.275E-04 0.000E+00

     Adding external electric field

     Computed dipole along edir(3) : 
        Dipole               -5.6887 Ry au,        -14.4592 Debye
        Dipole field         -0.0018 Ry au, 

        E field amplitude [Ha a.u.]: -3.5000E-03
        Potential amp.       -0.2432 Ry
        Total length         72.5655 bohr


     total cpu time spent up to now is      294.2 secs

     total energy              =  -10980.25861511 Ry
     estimated scf accuracy    <       0.10601386 Ry

     iteration # 17     ecut=    90.00 Ry     beta= 0.70
     Davidson diagonalization with overlap
     ethr =  4.89E-06,  avg # of iterations = 57.0

     negative rho (up, down):  9.630E-05 0.000E+00

     Adding external electric field

     Computed dipole along edir(3) : 
        Dipole               -5.5667 Ry au,        -14.1492 Debye
        Dipole field         -0.0018 Ry au, 

        E field amplitude [Ha a.u.]: -3.5000E-03
        Potential amp.       -0.2489 Ry
        Total length         72.5655 bohr


     total cpu time spent up to now is      329.5 secs

     total energy              =  -10980.27650732 Ry
     estimated scf accuracy    <       0.00247182 Ry

     iteration # 18     ecut=    90.00 Ry     beta= 0.70
     Davidson diagonalization with overlap
     ethr =  1.37E-07,  avg # of iterations = 22.0

     negative rho (up, down):  7.536E-06 0.000E+00

     Adding external electric field

     Computed dipole along edir(3) : 
        Dipole               -5.6051 Ry au,        -14.2468 Debye
        Dipole field         -0.0018 Ry au, 

        E field amplitude [Ha a.u.]: -3.5000E-03
        Potential amp.       -0.2471 Ry
        Total length         72.5655 bohr


     total cpu time spent up to now is      348.3 secs

     total energy              =  -10980.27710856 Ry
     estimated scf accuracy    <       0.00058067 Ry

     iteration # 19     ecut=    90.00 Ry     beta= 0.70
     Davidson diagonalization with overlap
     ethr =  3.23E-08,  avg # of iterations =  4.0

     negative rho (up, down):  9.541E-07 0.000E+00

     Adding external electric field

     Computed dipole along edir(3) : 
        Dipole               -5.5917 Ry au,        -14.2126 Debye
        Dipole field         -0.0018 Ry au, 

        E field amplitude [Ha a.u.]: -3.5000E-03
        Potential amp.       -0.2477 Ry
        Total length         72.5655 bohr


     total cpu time spent up to now is      356.3 secs

     total energy              =  -10980.27720817 Ry
     estimated scf accuracy    <       0.00009779 Ry

     iteration # 20     ecut=    90.00 Ry     beta= 0.70
     Davidson diagonalization with overlap
     ethr =  5.43E-09,  avg # of iterations =  5.0

     negative rho (up, down):  1.355E-06 0.000E+00

     Adding external electric field

     Computed dipole along edir(3) : 
        Dipole               -5.5954 Ry au,        -14.2222 Debye
        Dipole field         -0.0018 Ry au, 

        E field amplitude [Ha a.u.]: -3.5000E-03
        Potential amp.       -0.2475 Ry
        Total length         72.5655 bohr


     total cpu time spent up to now is      365.0 secs

     total energy              =  -10980.27723126 Ry
     estimated scf accuracy    <       0.00001276 Ry

     iteration # 21     ecut=    90.00 Ry     beta= 0.70
     Davidson diagonalization with overlap
     ethr =  7.09E-10,  avg # of iterations =  5.0

     negative rho (up, down):  4.319E-07 0.000E+00

     Adding external electric field

     Computed dipole along edir(3) : 
        Dipole               -5.6023 Ry au,        -14.2397 Debye
        Dipole field         -0.0018 Ry au, 

        E field amplitude [Ha a.u.]: -3.5000E-03
        Potential amp.       -0.2472 Ry
        Total length         72.5655 bohr


     total cpu time spent up to now is      375.5 secs

     total energy              =  -10980.27723473 Ry
     estimated scf accuracy    <       0.00000825 Ry

     iteration # 22     ecut=    90.00 Ry     beta= 0.70
     Davidson diagonalization with overlap
     ethr =  4.58E-10,  avg # of iterations =  3.0

     negative rho (up, down):  1.136E-07 0.000E+00

     Adding external electric field

     Computed dipole along edir(3) : 
        Dipole               -5.5961 Ry au,        -14.2239 Debye
        Dipole field         -0.0018 Ry au, 

        E field amplitude [Ha a.u.]: -3.5000E-03
        Potential amp.       -0.2475 Ry
        Total length         72.5655 bohr


     total cpu time spent up to now is      383.5 secs

     total energy              =  -10980.27723621 Ry
     estimated scf accuracy    <       0.00000092 Ry

     iteration # 23     ecut=    90.00 Ry     beta= 0.70
     Davidson diagonalization with overlap
     c_bands:  2 eigenvalues not converged
     ethr =  5.13E-11,  avg # of iterations = 20.0

     Adding external electric field

     Computed dipole along edir(3) : 
        Dipole               -5.5962 Ry au,        -14.2242 Debye
        Dipole field         -0.0018 Ry au, 

        E field amplitude [Ha a.u.]: -3.5000E-03
        Potential amp.       -0.2475 Ry
        Total length         72.5655 bohr


     total cpu time spent up to now is      397.9 secs

     total energy              =  -10980.27723648 Ry
     estimated scf accuracy    <       0.00000031 Ry

     iteration # 24     ecut=    90.00 Ry     beta= 0.70
     Davidson diagonalization with overlap
     ethr =  1.70E-11,  avg # of iterations =  4.0

     Adding external electric field

     Computed dipole along edir(3) : 
        Dipole               -5.5975 Ry au,        -14.2274 Debye
        Dipole field         -0.0018 Ry au, 

        E field amplitude [Ha a.u.]: -3.5000E-03
        Potential amp.       -0.2475 Ry
        Total length         72.5655 bohr


     total cpu time spent up to now is      406.5 secs

     total energy              =  -10980.27723654 Ry
     estimated scf accuracy    <       0.00000014 Ry

     iteration # 25     ecut=    90.00 Ry     beta= 0.70
     Davidson diagonalization with overlap
     ethr =  7.99E-12,  avg # of iterations =  3.0

     Adding external electric field

     Computed dipole along edir(3) : 
        Dipole               -5.5970 Ry au,        -14.2262 Debye
        Dipole field         -0.0018 Ry au, 

        E field amplitude [Ha a.u.]: -3.5000E-03
        Potential amp.       -0.2475 Ry
        Total length         72.5655 bohr


     total cpu time spent up to now is      414.3 secs

     total energy              =  -10980.27723656 Ry
     estimated scf accuracy    <       0.00000001 Ry

     iteration # 26     ecut=    90.00 Ry     beta= 0.70
     Davidson diagonalization with overlap
     ethr =  5.67E-13,  avg # of iterations =  5.0

     Adding external electric field

     Computed dipole along edir(3) : 
        Dipole               -5.5971 Ry au,        -14.2264 Debye
        Dipole field         -0.0018 Ry au, 

        E field amplitude [Ha a.u.]: -3.5000E-03
        Potential amp.       -0.2475 Ry
        Total length         72.5655 bohr


     total cpu time spent up to now is      424.9 secs

     total energy              =  -10980.27723657 Ry
     estimated scf accuracy    <          3.8E-09 Ry

     iteration # 27     ecut=    90.00 Ry     beta= 0.70
     Davidson diagonalization with overlap
     ethr =  2.08E-13,  avg # of iterations =  5.0

     Adding external electric field

     Computed dipole along edir(3) : 
        Dipole               -5.5970 Ry au,        -14.2261 Debye
        Dipole field         -0.0018 Ry au, 

        E field amplitude [Ha a.u.]: -3.5000E-03
        Potential amp.       -0.2475 Ry
        Total length         72.5655 bohr


     total cpu time spent up to now is      433.0 secs

     End of self-consistent calculation

          k = 0.0000 0.0000 0.0000 (282573 PWs)   bands (ev):

   -45.0387 -44.9070 -44.7118 -44.6954 -44.6844 -44.6627 -44.5239 -44.5237
   -44.5159 -44.5125 -44.4651 -44.3588 -44.3457 -44.3456 -44.3425 -44.3135
   -44.1966 -44.1887 -44.1863 -44.1770 -44.1628 -44.0391 -43.8138 -43.7637
   -41.1964 -41.1448 -41.0888 -41.0881 -41.0854 -41.0744 -41.0459 -41.0350
   -40.9865 -40.9712 -40.9587 -40.9062 -40.8889 -40.8688 -40.8563 -40.8469
   -40.8292 -40.8164 -40.8053 -40.8034 -40.7966 -40.7957 -40.7924 -40.7822
   -40.7475 -40.7457 -40.7364 -40.7330 -40.7238 -40.7227 -40.6993 -40.6785
   -40.6685 -40.6563 -40.6556 -40.6478 -40.6463 -40.6458 -40.5504 -40.5243
   -40.5234 -40.5206 -40.5188 -40.5144 -40.5132 -40.4892 -40.4889 -40.4853
   -40.4673 -40.4624 -40.4596 -40.4500 -40.4450 -40.4415 -40.4356 -40.4347
   -40.4185 -40.4172 -40.3733 -40.3614 -40.2697 -40.2485 -40.2149 -40.2136
   -40.1543 -40.1403 -40.1138 -40.1046 -40.0908 -40.0724 -39.9633 -39.9605
   -39.8633 -39.8495 -39.8061 -39.7887 -39.6744 -39.6408 -39.5999 -39.5485
   -39.5160 -39.4311 -39.4220 -39.3837 -28.4118 -27.9342 -27.8434 -27.7405
   -27.7180 -27.6416 -27.5806 -27.5802 -27.5304 -27.4156 -27.3890 -27.3606
   -27.3408 -27.3293 -27.3196 -27.2938 -27.2795 -27.2488 -27.2460 -27.1946
   -27.1886 -27.1565 -27.1389 -27.0864 -27.0170 -26.9951 -26.9896 -26.9682
   -26.9498 -26.9431 -26.8436 -26.8229 -26.7749 -26.7653 -26.6765 -26.6556
   -23.2813 -23.2668 -23.2310 -23.2138 -23.1872 -23.1516 -23.0007 -22.9905
   -22.9778 -22.9748 -22.9691 -22.9478 -22.9381 -22.9352 -22.9270 -22.9229
   -22.9123 -22.8871 -22.8089 -22.8069 -22.8011 -22.7989 -22.7979 -22.7818
   -22.7813 -22.7734 -22.7718 -22.7510 -22.7476 -22.7406 -22.7374 -22.7214
   -22.6811 -22.6422 -22.6306 -22.6300 -22.6287 -22.6154 -22.6063 -22.6060
   -22.6035 -22.6020 -22.5977 -22.5842 -22.5728 -22.5711 -22.5668 -22.5113
   -22.4783 -22.4738 -22.4663 -22.4644 -22.4518 -22.4466 -22.4435 -22.4393
   -22.4277 -22.4162 -22.4132 -22.4088 -22.4060 -22.3540 -22.3207 -22.3127
   -22.2755 -22.2382 -22.0876 -22.0832 -22.0425 -22.0185 -22.0015 -22.0000
   -15.0011 -14.9488 -14.7166 -14.4303 -14.3994 -14.3815 -14.3334 -14.2870
   -14.2532 -14.1827 -14.1601 -14.1532 -14.1467 -14.1355 -14.0815 -14.0722
   -14.0566 -14.0497 -14.0206 -13.9989 -13.9843 -13.9661 -13.9517 -13.9496
   -13.9371 -13.9178 -13.8957 -13.8932 -13.8452 -13.8400 -13.8295 -13.8250
   -13.8081 -13.7798 -13.7757 -13.7568 -13.7476 -13.7442 -13.7404 -13.7288
   -13.7019 -13.6992 -13.6773 -13.6767 -13.6557 -13.6352 -13.6227 -13.6060
   -13.6041 -13.5866 -13.5804 -13.5675 -13.5540 -13.5395 -13.5131 -13.5108
   -13.4914 -13.4769 -13.4754 -13.4748 -13.4651 -13.4512 -13.4425 -13.4288
   -13.4083 -13.4045 -13.3947 -13.3929 -13.3665 -13.3606 -13.3564 -13.3388
   -13.3302 -13.3176 -13.3125 -13.2889 -13.2774 -13.2756 -13.2660 -13.2587
   -13.2441 -13.2373 -13.2254 -13.2215 -13.2125 -13.2056 -13.1911 -13.1813
   -13.1735 -13.1595 -13.1448 -13.1409 -13.1207 -13.1044 -13.0987 -13.0907
   -13.0862 -13.0604 -13.0590 -13.0408 -13.0310 -13.0296 -13.0049 -12.9914
   -12.9811 -12.9722 -12.9645 -12.9599 -12.9573 -12.9340 -12.9127 -12.9035
   -12.8814 -12.8614 -12.8539 -12.8412 -12.8401 -12.8246 -12.8011 -12.7963
   -12.7869 -12.7626 -12.7492 -12.7217 -12.7115 -12.6761 -12.6575 -12.6498
   -12.6097 -12.5845 -12.5494 -12.5310 -12.5306 -12.4595 -12.4451 -12.4071
   -12.3702 -12.3407 -12.3267 -12.2792 -12.2723 -12.2045 -12.1421 -12.0167
   -11.6062 -11.4437 -11.4234 -11.3187 -11.2580 -11.2480 -11.2276 -11.1364
   -11.0857 -11.0444 -11.0425 -11.0125 -11.0040 -10.9876 -10.9664 -10.9421
   -10.9187 -10.9001 -10.8721 -10.8573 -10.8435 -10.8411 -10.8243 -10.8062
   -10.7947 -10.7855 -10.7806 -10.7601 -10.7495 -10.7303 -10.7102 -10.7045
   -10.6986 -10.6865 -10.6803 -10.6733 -10.6684 -10.6583 -10.6398 -10.6269
   -10.6138 -10.6085 -10.5826 -10.5815 -10.5730 -10.5520 -10.5321 -10.5268
   -10.5144 -10.5058 -10.4887 -10.4863 -10.4621 -10.4550 -10.4356 -10.4268
   -10.4264 -10.3991 -10.3947 -10.3892 -10.3746 -10.3663 -10.3488 -10.3414
   -10.3191 -10.3129 -10.3058 -10.2952 -10.2821 -10.2721 -10.2542 -10.2391
   -10.2296 -10.2200 -10.2030 -10.1981 -10.1615 -10.1529 -10.1404 -10.1361
   -10.0931 -10.0845 -10.0517 -10.0367 -10.0257 -10.0196 -10.0142 -10.0002
    -9.9704  -9.9503  -9.9379  -9.9178  -9.8979  -9.8798  -9.8522  -9.8311
    -9.8064  -9.7697  -9.7391  -9.7325  -9.7041  -9.6884  -9.6210  -9.6032
    -9.5292  -9.4568  -9.2567  -9.2119  -1.2115  -1.0964  -0.9615  -0.9374
    -0.9173  -0.8670  -0.8577  -0.8313  -0.7948  -0.7881  -0.7533  -0.7274
    -0.7187  -0.7008  -0.6894  -0.6281  -0.6268  -0.6031  -0.5854  -0.5738
    -0.5554  -0.5380  -0.5261  -0.5083  -0.5031  -0.4853  -0.4791  -0.4646
    -0.4449  -0.4273  -0.4209  -0.4136  -0.4048  -0.3916  -0.3794  -0.3747
    -0.3608  -0.3532  -0.3361  -0.3308  -0.3137  -0.2951  -0.2863  -0.2832
    -0.2576  -0.2544  -0.2429  -0.2393  -0.2277  -0.2256  -0.2103  -0.2032
    -0.1899  -0.1851  -0.1824  -0.1778  -0.1526  -0.1420  -0.1371  -0.1346
    -0.1228  -0.1176  -0.1043  -0.0935  -0.0860  -0.0821  -0.0758  -0.0630
    -0.0557  -0.0517  -0.0445  -0.0403  -0.0277  -0.0242  -0.0218  -0.0087
     0.0062   0.0099   0.0166   0.0225   0.0299   0.0396   0.0445   0.0541
     0.0606   0.0745   0.0766   0.0807   0.0923   0.0961   0.1014   0.1152
     0.1196   0.1294   0.1349   0.1406   0.1535   0.1582   0.1635   0.1728
     0.1795   0.1870   0.1924   0.1963   0.2085   0.2219   0.2291   0.2333
     0.2374   0.2442   0.2487   0.2552   0.2613   0.2652   0.2705   0.2805
     0.2895   0.2966   0.3036   0.3063   0.3166   0.3197   0.3261   0.3347
     0.3416   0.3449   0.3516   0.3608   0.3643   0.3776   0.3806   0.3930
     0.3968   0.4060   0.4132   0.4146   0.4293   0.4364   0.4426   0.4521
     0.4592   0.4630   0.4776   0.4834   0.4872   0.4914   0.4938   0.5130
     0.5150   0.5184   0.5279   0.5320   0.5471   0.5547   0.5563   0.5636
     0.5718   0.5814   0.5897   0.6034   0.6097   0.6251   0.6297   0.6346
     0.6412   0.6487   0.6571   0.6607   0.6633   0.6809   0.6847   0.6920
     0.6998   0.7033   0.7199   0.7271   0.7284   0.7356   0.7415   0.7524
     0.7596   0.7686   0.7780   0.7900   0.7963   0.8045   0.8111   0.8223
     0.8305   0.8420   0.8508   0.8593   0.8700   0.8736   0.8809   0.8850
     0.8995   0.9028   0.9103   0.9210   0.9253   0.9317   0.9437   0.9576
     0.9650   0.9801   0.9834   0.9988   1.0046   1.0117   1.0180   1.0312
     1.0372   1.0459   1.0498   1.0719   1.0747   1.0793   1.0827   1.0937
     1.1034   1.1106   1.1131   1.1203   1.1269   1.1366   1.1495   1.1531
     1.1645   1.1681   1.1771   1.1901   1.1986   1.2097   1.2104   1.2218
     1.2238   1.2296   1.2409   1.2514   1.2556   1.2668   1.2740   1.2804
     1.2940   1.2988   1.3040   1.3148   1.3222   1.3275   1.3353   1.3403
     1.3490   1.3554   1.3660   1.3707   1.3863   1.3960   1.4017   1.4117
     1.4187   1.4207   1.4379   1.4467   1.4503   1.4512   1.4539   1.4676
     1.4723   1.4780   1.4811   1.4928   1.5086   1.5105   1.5139   1.5232
     1.5288   1.5395   1.5411   1.5487   1.5647   1.5684   1.5750   1.5793
     1.5899   1.5986   1.6066   1.6084   1.6126   1.6212   1.6257   1.6270
     1.6388   1.6513   1.6543   1.6661   1.6716   1.6794   1.6843   1.6913
     1.6947   1.7002   1.7030   1.7073   1.7127   1.7228   1.7239   1.7361
     1.7472   1.7572   1.7581   1.7601   1.7680   1.7746   1.7775   1.7919
     1.8009   1.8051   1.8078   1.8114   1.8182   1.8262   1.8354   1.8416
     1.8493   1.8530   1.8555   1.8682   1.8731   1.8818   1.8871   1.8939
     1.9044   1.9082   1.9163   1.9179   1.9225   1.9276   1.9317   1.9446
     1.9495   1.9525   1.9634   1.9662   1.9814   1.9822   1.9867   1.9887
     1.9928   2.0098   2.0181   2.0269   2.0319   2.0352   2.0452   2.0519
     2.0557   2.0606   2.0707   2.0732   2.0832   2.0863   2.0924   2.0984
     2.1061   2.1196   2.1205   2.1256   2.1311   2.1404   2.1466   2.1516
     2.1631   2.1712   2.1758   2.1791   2.1944   2.1965   2.2015   2.2093
     2.2143   2.2272   2.2354   2.2405   2.2450   2.2491   2.2504   2.2590
     2.2714   2.2825   2.2885   2.2964   2.3012   2.3040   2.3093   2.3203
     2.3215   2.3420   2.3585   2.3678   2.3825   2.3976   2.4024   2.4106
     2.4244   2.4331   2.4341   2.4450   2.4578   2.4789   2.4896   2.5027
     2.5093   2.5268   2.5434   2.5458   2.5701   2.5884   2.6046   2.6249
     2.6558   2.6690   2.6826   2.6862   2.7137   2.7343   2.7905   2.8028
     2.8595   2.8889   2.9725   3.0041   4.9884   5.8835   6.0072   6.0657
     6.1326   6.1418   6.2436   6.2782   6.3137   6.3564   6.4265   6.4358
     6.4750   6.5022   6.5259   6.5691   6.5998   6.6072   6.6302   6.6384
     6.6547   6.6694   6.6838   6.6883   6.6905   6.7220   6.7325   6.7410
     6.7471   6.7557   6.7769   6.7929   6.8015   6.8082   6.8191   6.8269
     6.8333   6.8417   6.8455   6.8518   6.8726   6.8785   6.8857   6.8913
     6.8962   6.9056   6.9083   6.9257   6.9349   6.9391   6.9510   6.9577
     6.9588   6.9611   6.9708   6.9724   6.9754   6.9827   6.9899   6.9991
     7.0077   7.0133   7.0149   7.0204   7.0319   7.0419   7.0540   7.0551
     7.0686   7.0731   7.0759   7.0772   7.0880   7.0892   7.0976   7.1032
     7.1082   7.1140   7.1169   7.1200   7.1290   7.1324   7.1332   7.1365
     7.1447   7.1541   7.1608   7.1631   7.1755   7.1798   7.1827   7.1868
     7.1936   7.1990   7.1999   7.2103   7.2148   7.2168   7.2213   7.2304
     7.2362   7.2383   7.2450   7.2515   7.2579   7.2649   7.2681   7.2772
     7.2805   7.2845   7.2884   7.2951   7.3002   7.3022   7.3055   7.3109
     7.3187   7.3204   7.3274   7.3327   7.3343   7.3380   7.3414   7.3467
     7.3518   7.3538   7.3569   7.3623   7.3649   7.3676   7.3731   7.3771
     7.3853   7.3860   7.3891   7.3910   7.3924   7.3974   7.4007   7.4063
     7.4097   7.4119   7.4165   7.4194   7.4242   7.4272   7.4305   7.4329
     7.4347   7.4356   7.4395   7.4429   7.4504   7.4518   7.4551   7.4614
     7.4645   7.4678   7.4742   7.4757   7.4805   7.4819   7.4842   7.4867
     7.4924   7.4943   7.5011   7.5052   7.5092   7.5099   7.5152   7.5236
     7.5265   7.5312   7.5389   7.5412   7.5493   7.5507   7.5572   7.5654

     the Fermi energy is     4.2784 ev

!    total energy              =  -10980.27723657 Ry
     estimated scf accuracy    <          6.3E-10 Ry
     smearing contrib. (-TS)   =       0.00000000 Ry
     internal energy E=F+TS    =  -10980.27723657 Ry

     The total energy is F=E-TS. E is the sum of the following terms:
     one-electron contribution = -262689.02403326 Ry
     hartree contribution      =  131920.07170747 Ry
     xc contribution           =   -2580.51394009 Ry
     ewald contribution        =  122369.21816276 Ry
     electric field correction =      -0.02913345 Ry

     convergence has been achieved in  27 iterations

     Forces acting on atoms (cartesian axes, Ry/au):

     atom    1 type  1   force =    -0.00095995   -0.00038910   -0.00283088
     atom    2 type  1   force =     0.00002780   -0.00095890   -0.00300391
     atom    3 type  1   force =     0.00102966   -0.00020220   -0.00294992
     atom    4 type  1   force =     0.00046817    0.00061355   -0.00205495
     atom    5 type  1   force =    -0.00039183    0.00020136   -0.00192314
     atom    6 type  1   force =    -0.00060078   -0.00042613   -0.00131233
     atom    7 type  1   force =     0.00047590    0.00021562   -0.00129010
     atom    8 type  1   force =    -0.00041835   -0.00011200   -0.00097983
     atom    9 type  1   force =     0.00017043    0.00014600   -0.00139153
     atom   10 type  1   force =    -0.00023595    0.00004723   -0.00163488
     atom   11 type  1   force =     0.00025634    0.00019548   -0.00225812
     atom   12 type  1   force =     0.00023043   -0.00061746   -0.00177892
     atom   13 type  1   force =    -0.00031512    0.00017905   -0.00161052
     atom   14 type  1   force =    -0.00057173    0.00027281   -0.00142122
     atom   15 type  1   force =     0.00053433   -0.00023800   -0.00168556
     atom   16 type  1   force =     0.00032574    0.00058375   -0.00148524
     atom   17 type  1   force =    -0.00082153   -0.00027677   -0.00144789
     atom   18 type  1   force =    -0.00002156   -0.00010927   -0.00158897
     atom   19 type  1   force =     0.00008905   -0.00052380   -0.00211992
     atom   20 type  1   force =     0.00009498    0.00075344   -0.00181063
     atom   21 type  1   force =     0.00010066   -0.00067084   -0.00161318
     atom   22 type  1   force =     0.00007058    0.00038405   -0.00102472
     atom   23 type  1   force =    -0.00032776   -0.00027484   -0.00127696
     atom   24 type  1   force =    -0.00026910    0.00022416   -0.00114617
     atom   25 type  1   force =    -0.00014509   -0.00006947   -0.00163841
     atom   26 type  1   force =     0.00067990    0.00018320   -0.00216012
     atom   27 type  1   force =    -0.00051678    0.00054234   -0.00138922
     atom   28 type  1   force =    -0.00056590   -0.00022195   -0.00179028
     atom   29 type  1   force =    -0.00029305   -0.00069302   -0.00144207
     atom   30 type  1   force =     0.00026737   -0.00049509   -0.00190160
     atom   31 type  1   force =     0.00022606    0.00069912   -0.00119720
     atom   32 type  1   force =    -0.00018402    0.00007091   -0.00141594
     atom   33 type  1   force =     0.00031547   -0.00004460   -0.00232266
     atom   34 type  1   force =    -0.00056883   -0.00059332   -0.00174462
     atom   35 type  1   force =     0.00059491    0.00029535   -0.00192298
     atom   36 type  1   force =    -0.00054411   -0.00005957   -0.00115423
     atom   37 type  1   force =     0.00021841    0.00036151   -0.00129184
     atom   38 type  1   force =    -0.00038495    0.00014538   -0.00105110
     atom   39 type  1   force =     0.00003916    0.00018365   -0.00151366
     atom   40 type  1   force =     0.00024608   -0.00078319   -0.00200692
     atom   41 type  1   force =     0.00003915    0.00072732   -0.00168983
     atom   42 type  1   force =    -0.00058819    0.00035416   -0.00132732
     atom   43 type  1   force =     0.00065659   -0.00013954   -0.00190673
     atom   44 type  1   force =     0.00053503    0.00055759   -0.00151636
     atom   45 type  1   force =    -0.00083182   -0.00030671   -0.00142334
     atom   46 type  1   force =    -0.00017535    0.00007395   -0.00139063
     atom   47 type  1   force =     0.00010993   -0.00050217   -0.00234049
     atom   48 type  1   force =     0.00019849    0.00067894   -0.00166837
     atom   49 type  1   force =     0.00008399   -0.00080620   -0.00158923
     atom   50 type  1   force =     0.00009191    0.00039314   -0.00098471
     atom   51 type  1   force =    -0.00047620   -0.00037087   -0.00122294
     atom   52 type  1   force =    -0.00030233    0.00028246   -0.00112546
     atom   53 type  1   force =    -0.00017688   -0.00011117   -0.00158336
     atom   54 type  1   force =     0.00062355    0.00028814   -0.00252900
     atom   55 type  1   force =    -0.00042828    0.00047923   -0.00134437
     atom   56 type  1   force =    -0.00049142   -0.00022350   -0.00183975
     atom   57 type  1   force =    -0.00033765   -0.00060236   -0.00145661
     atom   58 type  1   force =     0.00039514   -0.00052362   -0.00192416
     atom   59 type  1   force =     0.00024075    0.00063815   -0.00127879
     atom   60 type  1   force =    -0.00015560    0.00014110   -0.00147715
     atom   61 type  1   force =     0.00028721    0.00004423   -0.00211680
     atom   62 type  1   force =    -0.00062485   -0.00061941   -0.00189369
     atom   63 type  1   force =     0.00073119    0.00032084   -0.00191203
     atom   64 type  1   force =    -0.00049955   -0.00019428   -0.00127151
     atom   65 type  1   force =     0.00005813    0.00050979   -0.00121848
     atom   66 type  1   force =    -0.00055732    0.00017490   -0.00098484
     atom   67 type  1   force =     0.00008707   -0.00005728   -0.00142845
     atom   68 type  1   force =     0.00043797   -0.00080000   -0.00194707
     atom   69 type  1   force =    -0.00002793    0.00053493   -0.00172162
     atom   70 type  1   force =    -0.00063552    0.00026115   -0.00122906
     atom   71 type  1   force =    -0.00005515    0.00029757   -0.00153749
     atom   72 type  1   force =     0.00079810    0.00059134   -0.00143917
     atom   73 type  1   force =    -0.00071838   -0.00067300   -0.00105955
     atom   74 type  1   force =    -0.00019150   -0.00002839   -0.00138554
     atom   75 type  1   force =     0.00040474   -0.00038590   -0.00231346
     atom   76 type  1   force =    -0.00009297    0.00018299   -0.00152832
     atom   77 type  1   force =     0.00052428   -0.00058689   -0.00192867
     atom   78 type  1   force =    -0.00090538    0.00088442   -0.00138239
     atom   79 type  1   force =     0.00042671   -0.00041920   -0.00141521
     atom   80 type  1   force =     0.00069041   -0.00046586   -0.00070545
     atom   81 type  1   force =     0.00006808    0.00034162   -0.00128845
     atom   82 type  1   force =     0.00038602    0.00078002   -0.00106902
     atom   83 type  1   force =    -0.00002260   -0.00043394   -0.00135874
     atom   84 type  1   force =    -0.00083193   -0.00119460   -0.00142975
     atom   85 type  2   force =     0.00123723    0.00188969   -0.01330645
     atom   86 type  2   force =     0.00178973   -0.00245099   -0.00612748
     atom   87 type  2   force =    -0.00266785    0.00197867   -0.00900345
     atom   88 type  2   force =    -0.00013639   -0.00089969   -0.00431828
     atom   89 type  2   force =     0.00078109    0.00151499   -0.00338688
     atom   90 type  2   force =    -0.00074207    0.00001487   -0.00716521
     atom   91 type  2   force =     0.00031041   -0.00083310   -0.00607192
     atom   92 type  2   force =     0.00060108   -0.00051565   -0.00398824
     atom   93 type  2   force =    -0.00062683    0.00011113   -0.00533714
     atom   94 type  2   force =    -0.00110331    0.00016499   -0.00441423
     atom   95 type  2   force =     0.00047764    0.00037417   -0.00554829
     atom   96 type  2   force =     0.00072753    0.00071528   -0.00645195
     atom   97 type  2   force =     0.00025103    0.00047610   -0.00553009
     atom   98 type  2   force =    -0.00004752   -0.00047370   -0.00545146
     atom   99 type  2   force =     0.00031036    0.00029679   -0.00607021
     atom  100 type  2   force =    -0.00034274    0.00082847   -0.00490949
     atom  101 type  2   force =    -0.00016145   -0.00042340   -0.00554221
     atom  102 type  2   force =    -0.00048497   -0.00024866   -0.00648905
     atom  103 type  2   force =    -0.00075734   -0.00087518   -0.00523787
     atom  104 type  2   force =     0.00081142   -0.00000885   -0.00528864
     atom  105 type  2   force =    -0.00039556   -0.00011520   -0.00620796
     atom  106 type  2   force =    -0.00118989    0.00003595   -0.00444570
     atom  107 type  2   force =     0.00042751    0.00011318   -0.00505536
     atom  108 type  2   force =     0.00037967    0.00066485   -0.00672390
     atom  109 type  2   force =     0.00028266    0.00045634   -0.00499358
     atom  110 type  2   force =     0.00035000   -0.00059061   -0.00477609
     atom  111 type  2   force =     0.00009710    0.00049972   -0.00650848
     atom  112 type  2   force =    -0.00002477    0.00077657   -0.00637851
     atom  113 type  2   force =     0.00064820   -0.00063133   -0.00592963
     atom  114 type  2   force =     0.00077982   -0.00122690   -0.00468598
     atom  115 type  2   force =    -0.00138852   -0.00017676   -0.00443726
     atom  116 type  2   force =     0.00011603   -0.00075270   -0.00511244
     atom  117 type  2   force =    -0.00087919   -0.00027620   -0.00462643
     atom  118 type  2   force =    -0.00025367   -0.00347172   -0.00087251
     atom  119 type  2   force =    -0.00217461    0.00168310   -0.00264413
     atom  120 type  2   force =    -0.00052996    0.00020756    0.00143536
     atom  121 type  3   force =     0.00982547   -0.00053378   -0.01283873
     atom  122 type  3   force =    -0.00416952    0.00381617   -0.01400715
     atom  123 type  3   force =     0.00704332   -0.00157746   -0.00940415
     atom  124 type  3   force =    -0.00833369   -0.00292197   -0.00922201
     atom  125 type  3   force =    -0.00090105   -0.00003849   -0.00826304
     atom  126 type  3   force =     0.00157747   -0.00128337   -0.00781368
     atom  127 type  3   force =     0.00036817    0.00042555   -0.00557981
     atom  128 type  3   force =    -0.00123912    0.00270621   -0.00585401
     atom  129 type  3   force =    -0.00024523   -0.00096899   -0.00611265
     atom  130 type  3   force =    -0.00004648    0.00077655   -0.00558035
     atom  131 type  3   force =    -0.00163937   -0.00169136   -0.00732481
     atom  132 type  3   force =     0.00064458    0.00120910   -0.00678943
     atom  133 type  3   force =    -0.00047127   -0.00152326   -0.00821608
     atom  134 type  3   force =     0.00143628    0.00039724   -0.00801576
     atom  135 type  3   force =     0.00066922   -0.00049055   -0.00573440
     atom  136 type  3   force =    -0.00052633   -0.00032434   -0.00530204
     atom  137 type  3   force =     0.00224520   -0.00040286   -0.00468879
     atom  138 type  3   force =     0.00027008    0.00005108   -0.00521240
     atom  139 type  3   force =    -0.00148319   -0.00139153   -0.00858109
     atom  140 type  3   force =     0.00097831    0.00178564   -0.00752624
     atom  141 type  3   force =    -0.00693591    0.00838328    0.00898610
     atom  142 type  3   force =     0.00393356   -0.00142022    0.00974133
     atom  143 type  3   force =     0.00247148    0.00768001   -0.00219676
     atom  144 type  3   force =    -0.00227810   -0.00489615   -0.00239582
     atom  145 type  4   force =     0.00433739   -0.00345791    0.01014406
     atom  146 type  4   force =    -0.00583773    0.00133683    0.00758451
     atom  147 type  4   force =     0.00864090   -0.00118981    0.00876229
     atom  148 type  4   force =    -0.00860549    0.00465643    0.01140760
     atom  149 type  4   force =     0.00338664   -0.00615827    0.00594074
     atom  150 type  4   force =    -0.00335788    0.01067684    0.00790942
     atom  151 type  4   force =    -0.01129437    0.01130715    0.00717556
     atom  152 type  4   force =     0.00845893   -0.01084983    0.00541531
     atom  153 type  4   force =    -0.00911027   -0.01292208    0.00377351
     atom  154 type  4   force =     0.00430029    0.00571126    0.00366221
     atom  155 type  4   force =     0.00421311   -0.00139608    0.00730992
     atom  156 type  4   force =    -0.00337515    0.00105739    0.00632000
     atom  157 type  4   force =     0.00929240    0.00666385    0.00562476
     atom  158 type  4   force =    -0.00825285   -0.00456442    0.00071668
     atom  159 type  4   force =    -0.00406946   -0.00266601    0.00263745
     atom  160 type  4   force =     0.00395632    0.00214376    0.00199524
     atom  161 type  4   force =     0.00338365   -0.00077349    0.00605547
     atom  162 type  4   force =    -0.00284684    0.00041157    0.00402295
     atom  163 type  4   force =     0.00085107   -0.00222548   -0.00056784
     atom  164 type  4   force =    -0.00028347    0.00169651    0.00060529
     atom  165 type  4   force =     0.00369690   -0.00011352    0.00076216
     atom  166 type  4   force =    -0.00285994    0.00097723    0.00029490
     atom  167 type  4   force =     0.00193755   -0.00089091   -0.00105494
     atom  168 type  4   force =    -0.00073929    0.00083465   -0.00114613
     atom  169 type  4   force =     0.00310605   -0.00127903    0.01011529
     atom  170 type  4   force =    -0.00310021    0.00239121    0.01153326
     atom  171 type  4   force =     0.00176756   -0.00545371    0.00936784
     atom  172 type  4   force =    -0.00195647    0.00606613    0.00783372
     atom  173 type  4   force =     0.00662271   -0.00046647    0.00731753
     atom  174 type  4   force =    -0.00752416    0.00103832    0.00834731
     atom  175 type  4   force =     0.00555903   -0.00367322    0.00570440
     atom  176 type  4   force =    -0.00507220    0.00387319    0.00467560
     atom  177 type  4   force =     0.00170787    0.00592499    0.00537588
     atom  178 type  4   force =    -0.00232478   -0.00783038    0.00547621
     atom  179 type  4   force =    -0.00154853   -0.00536897    0.00464426
     atom  180 type  4   force =     0.00152207    0.00655615    0.00526905
     atom  181 type  4   force =    -0.00244984   -0.00684976    0.00136156
     atom  182 type  4   force =     0.00321118    0.00662295    0.00054866
     atom  183 type  4   force =     0.00243467    0.00544773    0.00045505
     atom  184 type  4   force =    -0.00263176   -0.00618365    0.00094740
     atom  185 type  4   force =    -0.00529467    0.00303313    0.00060896
     atom  186 type  4   force =     0.00672022   -0.00448609    0.00020426
     atom  187 type  4   force =     0.00426930   -0.00035896   -0.00034862
     atom  188 type  4   force =    -0.00463982    0.00002821   -0.00052975
     atom  189 type  4   force =     0.00187641   -0.00409717   -0.00112096
     atom  190 type  4   force =    -0.00100041    0.00380187   -0.00136148
     atom  191 type  4   force =     0.00228326   -0.00116702   -0.00224233
     atom  192 type  4   force =    -0.00196272    0.00062348   -0.00192481
     atom  193 type  4   force =     0.00159512   -0.00206024    0.00982621
     atom  194 type  4   force =    -0.00226569    0.00219171    0.01037336
     atom  195 type  4   force =     0.00572376   -0.00003867    0.00841593
     atom  196 type  4   force =    -0.00601704    0.00034481    0.00784829
     atom  197 type  4   force =     0.00253383   -0.00537099    0.00747556
     atom  198 type  4   force =    -0.00280677    0.00561726    0.00802413
     atom  199 type  4   force =    -0.00681335    0.00393713    0.00622242
     atom  200 type  4   force =     0.00525549   -0.00429509    0.00569791
     atom  201 type  4   force =    -0.00543053   -0.00424511    0.00507061
     atom  202 type  4   force =     0.00536896    0.00417490    0.00533247
     atom  203 type  4   force =     0.00681459    0.00524337    0.00522731
     atom  204 type  4   force =    -0.00638360   -0.00473333    0.00467007
     atom  205 type  4   force =     0.00529635    0.00387203    0.00137373
     atom  206 type  4   force =    -0.00474161   -0.00370175    0.00134522
     atom  207 type  4   force =    -0.00526938   -0.00486517    0.00132353
     atom  208 type  4   force =     0.00537646    0.00507315    0.00123738
     atom  209 type  4   force =     0.00504349   -0.00371904    0.00110575
     atom  210 type  4   force =    -0.00450107    0.00368019    0.00076983
     atom  211 type  4   force =     0.00204413   -0.00492276   -0.00100633
     atom  212 type  4   force =    -0.00156978    0.00426982   -0.00010500
     atom  213 type  4   force =     0.00491023   -0.00071731   -0.00191381
     atom  214 type  4   force =    -0.00406413    0.00011911   -0.00131211
     atom  215 type  4   force =     0.00221756   -0.00204508   -0.00304675
     atom  216 type  4   force =    -0.00123301    0.00173215   -0.00216016
     atom  217 type  4   force =     0.00292111   -0.00077495    0.01034205
     atom  218 type  4   force =    -0.00296257    0.00212228    0.01159477
     atom  219 type  4   force =     0.00156542   -0.00490670    0.00773398
     atom  220 type  4   force =    -0.00273438    0.00582882    0.00825708
     atom  221 type  4   force =     0.00590044   -0.00043925    0.00723892
     atom  222 type  4   force =    -0.00673137    0.00124146    0.00854782
     atom  223 type  4   force =     0.00523648   -0.00370503    0.00536980
     atom  224 type  4   force =    -0.00547580    0.00427430    0.00529317
     atom  225 type  4   force =     0.00274946    0.00705213    0.00510954
     atom  226 type  4   force =    -0.00216619   -0.00708262    0.00542736
     atom  227 type  4   force =    -0.00240324   -0.00709933    0.00483858
     atom  228 type  4   force =     0.00248187    0.00735596    0.00451325
     atom  229 type  4   force =    -0.00221213   -0.00612673    0.00119141
     atom  230 type  4   force =     0.00269237    0.00646600    0.00084395
     atom  231 type  4   force =     0.00254448    0.00588858    0.00124282
     atom  232 type  4   force =    -0.00263799   -0.00612042    0.00125938
     atom  233 type  4   force =    -0.00566988    0.00310476    0.00063498
     atom  234 type  4   force =     0.00606836   -0.00392023    0.00074547
     atom  235 type  4   force =     0.00473886   -0.00019785   -0.00060179
     atom  236 type  4   force =    -0.00470072    0.00022911   -0.00024135
     atom  237 type  4   force =     0.00204566   -0.00430137   -0.00122607
     atom  238 type  4   force =    -0.00155965    0.00400288   -0.00157922
     atom  239 type  4   force =     0.00220301   -0.00109356   -0.00211583
     atom  240 type  4   force =    -0.00195202    0.00072368   -0.00179509
     atom  241 type  4   force =     0.00207051   -0.00243323    0.01062143
     atom  242 type  4   force =    -0.00280040    0.00268883    0.01112136
     atom  243 type  4   force =     0.00509380    0.00032594    0.00733440
     atom  244 type  4   force =    -0.00581857    0.00083085    0.00773240
     atom  245 type  4   force =     0.00251806   -0.00599703    0.00754206
     atom  246 type  4   force =    -0.00272751    0.00573815    0.00789786
     atom  247 type  4   force =    -0.00645860    0.00454951    0.00666816
     atom  248 type  4   force =     0.00491591   -0.00411203    0.00559263
     atom  249 type  4   force =    -0.00529949   -0.00440645    0.00522548
     atom  250 type  4   force =     0.00538274    0.00429889    0.00589338
     atom  251 type  4   force =     0.00659386    0.00524235    0.00501626
     atom  252 type  4   force =    -0.00670136   -0.00530025    0.00418536
     atom  253 type  4   force =     0.00569219    0.00358323    0.00101503
     atom  254 type  4   force =    -0.00481716   -0.00355013    0.00117818
     atom  255 type  4   force =    -0.00574556   -0.00495520    0.00121010
     atom  256 type  4   force =     0.00464494    0.00373053    0.00042117
     atom  257 type  4   force =     0.00547000   -0.00365590    0.00114689
     atom  258 type  4   force =    -0.00475931    0.00391837    0.00014387
     atom  259 type  4   force =     0.00214815   -0.00431751   -0.00094479
     atom  260 type  4   force =    -0.00141774    0.00383876   -0.00043272
     atom  261 type  4   force =     0.00486482   -0.00038835   -0.00163692
     atom  262 type  4   force =    -0.00464888    0.00008903   -0.00261024
     atom  263 type  4   force =     0.00225542   -0.00167643   -0.00352625
     atom  264 type  4   force =    -0.00119978    0.00131859   -0.00155851
     atom  265 type  4   force =    -0.00034106   -0.00087512    0.00626392
     atom  266 type  4   force =     0.00033004    0.00143395    0.00604107
     atom  267 type  4   force =     0.00160708   -0.00373934    0.00651239
     atom  268 type  4   force =    -0.00190484    0.00488211    0.00649937
     atom  269 type  4   force =     0.00242587    0.00058418    0.00655320
     atom  270 type  4   force =    -0.00370267    0.00040257    0.00739478
     atom  271 type  4   force =     0.00327420   -0.00335202    0.00391586
     atom  272 type  4   force =    -0.00554664    0.00413314    0.00385293
     atom  273 type  4   force =     0.00273750    0.00896422    0.00652718
     atom  274 type  4   force =    -0.00405921   -0.00958667    0.00472730
     atom  275 type  4   force =    -0.00064159   -0.00357227    0.00444390
     atom  276 type  4   force =     0.00303889    0.00459849    0.00283845
     atom  277 type  4   force =    -0.00514446   -0.00839399    0.00247799
     atom  278 type  4   force =     0.00389040    0.00723035    0.00067514
     atom  279 type  4   force =    -0.00201853    0.00239086    0.00170316
     atom  280 type  4   force =    -0.00005230   -0.00638656   -0.00139152
     atom  281 type  4   force =    -0.00406216    0.00504124   -0.00078504
     atom  282 type  4   force =     0.00652402   -0.00550327   -0.00222394
     atom  283 type  4   force =     0.00800158    0.00132586   -0.00159119
     atom  284 type  4   force =    -0.00582816    0.00125593   -0.00063146
     atom  285 type  4   force =     0.00698783   -0.00573791   -0.00407228
     atom  286 type  4   force =    -0.00282781    0.00702187   -0.00358752
     atom  287 type  4   force =     0.01271523   -0.00549581   -0.01105368
     atom  288 type  4   force =    -0.00982045   -0.00173374   -0.01205795
     The non-local contrib.  to forces
     atom    1 type  1   force =    -0.05744221   -0.02032557   -0.08326280
     atom    2 type  1   force =    -0.01973506   -0.03312846   -0.09698214
     atom    3 type  1   force =     0.05719126   -0.02837902   -0.07387410
     atom    4 type  1   force =     0.01014504    0.02130124   -0.09769088
     atom    5 type  1   force =    -0.04095520   -0.00071010   -0.06707873
[...]
     atom   55 type  1   force =    -0.00000027   -0.00000004   -0.00000072
     atom   56 type  1   force =    -0.00000001   -0.00000053   -0.00000090
     atom   57 type  1   force =     0.00000005    0.00000003   -0.00000058
     atom   58 type  1   force =     0.00000039    0.00000017   -0.00000074
     atom   59 type  1   force =    -0.00000024   -0.00000001   -0.00000064
     atom   60 type  1   force =     0.00000006   -0.00000012   -0.00000060
     atom   61 type  1   force =     0.00000002   -0.00000021   -0.00000082
     atom   62 type  1   force =     0.00000033   -0.00000008   -0.00000122
     atom   63 type  1   force =    -0.00000014   -0.00000017   -0.00000133
     atom   64 type  1   force =    -0.00000030   -0.00000012   -0.00000138
     atom   65 type  1   force =     0.00000067    0.00000040   -0.00000112
     atom   66 type  1   force =    -0.00000012    0.00000004   -0.00000058
     atom   67 type  1   force =     0.00000021   -0.00000021   -0.00000079
     atom   68 type  1   force =     0.00000013   -0.00000018   -0.00000138
     atom   69 type  1   force =    -0.00000012    0.00000009   -0.00000053
     atom   70 type  1   force =    -0.00000068    0.00000011   -0.00000094
     atom   71 type  1   force =     0.00000006   -0.00000016   -0.00000001
     atom   72 type  1   force =     0.00000020    0.00000003   -0.00000015
     atom   73 type  1   force =    -0.00000005    0.00000019   -0.00000003
     atom   74 type  1   force =    -0.00000010    0.00000015   -0.00000022
     atom   75 type  1   force =    -0.00000005    0.00000011   -0.00000015
     atom   76 type  1   force =     0.00000049    0.00000009   -0.00000061
     atom   77 type  1   force =     0.00000003   -0.00000015   -0.00000056
     atom   78 type  1   force =    -0.00000024    0.00000060    0.00000016
     atom   79 type  1   force =     0.00000020    0.00000002    0.00000003
     atom   80 type  1   force =     0.00000006    0.00000003   -0.00000020
     atom   81 type  1   force =     0.00000010    0.00000015    0.00000033
     atom   82 type  1   force =     0.00000120    0.00000026    0.00000017
     atom   83 type  1   force =     0.00000034    0.00000020    0.00000067
     atom   84 type  1   force =    -0.00000046   -0.00000020    0.00000059
     atom   85 type  2   force =    -0.00000097   -0.00000062    0.00000685
     atom   86 type  2   force =     0.00000337   -0.00000325    0.00001709
     atom   87 type  2   force =    -0.00000370    0.00000201    0.00001467
     atom   88 type  2   force =     0.00000026    0.00000199    0.00002178
     atom   89 type  2   force =     0.00000051   -0.00000138    0.00001939
     atom   90 type  2   force =     0.00000098   -0.00000033    0.00001159
     atom   91 type  2   force =    -0.00000055    0.00000045    0.00001741
     atom   92 type  2   force =     0.00000190   -0.00000064    0.00000895
     atom   93 type  2   force =    -0.00000107    0.00000113    0.00000793
     atom   94 type  2   force =     0.00000190    0.00000063    0.00000256
     atom   95 type  2   force =    -0.00000305    0.00000021    0.00000250
     atom   96 type  2   force =     0.00000055    0.00000088    0.00000450
     atom   97 type  2   force =     0.00000055   -0.00000015   -0.00000132
     atom   98 type  2   force =    -0.00000215    0.00000289   -0.00000490
     atom   99 type  2   force =     0.00000069   -0.00000293   -0.00000536
     atom  100 type  2   force =     0.00000037   -0.00000337   -0.00000689
     atom  101 type  2   force =    -0.00000160    0.00000355   -0.00000701
     atom  102 type  2   force =    -0.00000054    0.00000043   -0.00000278
     atom  103 type  2   force =    -0.00000047   -0.00000101   -0.00000485
     atom  104 type  2   force =    -0.00000116   -0.00000093   -0.00000449
     atom  105 type  2   force =     0.00000189    0.00000004   -0.00000441
     atom  106 type  2   force =    -0.00000036    0.00000030   -0.00000321
     atom  107 type  2   force =     0.00000029    0.00000018   -0.00000337
     atom  108 type  2   force =    -0.00000004    0.00000006   -0.00000512
     atom  109 type  2   force =     0.00000010    0.00000006   -0.00000349
     atom  110 type  2   force =    -0.00000123    0.00000062   -0.00000590
     atom  111 type  2   force =     0.00000039   -0.00000017   -0.00000484
     atom  112 type  2   force =     0.00000060   -0.00000041   -0.00000445
     atom  113 type  2   force =     0.00000004    0.00000078   -0.00000387
     atom  114 type  2   force =     0.00000039   -0.00000005   -0.00000366
     atom  115 type  2   force =     0.00000018   -0.00000031   -0.00000360
     atom  116 type  2   force =     0.00000097    0.00000072   -0.00000213
     atom  117 type  2   force =    -0.00000157   -0.00000072   -0.00000165
     atom  118 type  2   force =     0.00000252   -0.00000238    0.00000191
     atom  119 type  2   force =    -0.00000128    0.00000019    0.00000090
     atom  120 type  2   force =    -0.00000256    0.00000167    0.00000339
     atom  121 type  3   force =    -0.00000245    0.00000057    0.00002496
     atom  122 type  3   force =     0.00000157    0.00000259    0.00002561
     atom  123 type  3   force =    -0.00000198   -0.00000410    0.00002192
     atom  124 type  3   force =     0.00000364    0.00000192    0.00001824
     atom  125 type  3   force =     0.00000140   -0.00000385    0.00000629
     atom  126 type  3   force =    -0.00000239    0.00000084    0.00000735
     atom  127 type  3   force =     0.00000020    0.00000007    0.00000335
     atom  128 type  3   force =     0.00000195   -0.00000105    0.00000410
     atom  129 type  3   force =     0.00000082    0.00000241   -0.00001250
     atom  130 type  3   force =     0.00000121   -0.00000015   -0.00001386
     atom  131 type  3   force =     0.00000140    0.00000232   -0.00000646
     atom  132 type  3   force =    -0.00000134   -0.00000271   -0.00000634
     atom  133 type  3   force =     0.00000078   -0.00000184   -0.00000701
     atom  134 type  3   force =    -0.00000257    0.00000156   -0.00000807
     atom  135 type  3   force =     0.00000017   -0.00000154   -0.00000714
     atom  136 type  3   force =    -0.00000006    0.00000215   -0.00000891
     atom  137 type  3   force =     0.00000083    0.00000049   -0.00000968
     atom  138 type  3   force =    -0.00000078   -0.00000030   -0.00000925
     atom  139 type  3   force =     0.00000203    0.00000049   -0.00000860
     atom  140 type  3   force =    -0.00000168   -0.00000117   -0.00000791
     atom  141 type  3   force =    -0.00000029    0.00000129   -0.00000172
     atom  142 type  3   force =    -0.00000012   -0.00000078   -0.00000397
     atom  143 type  3   force =     0.00000016   -0.00000005    0.00000127
     atom  144 type  3   force =    -0.00000209   -0.00000048   -0.00000124
     atom  145 type  4   force =    -0.00000148   -0.00000107    0.00000342
     atom  146 type  4   force =     0.00000076    0.00000044    0.00000459
     atom  147 type  4   force =    -0.00000233   -0.00000026    0.00000619
     atom  148 type  4   force =     0.00000236   -0.00000025    0.00000486
     atom  149 type  4   force =     0.00000112   -0.00000113    0.00000596
     atom  150 type  4   force =    -0.00000080    0.00000017    0.00000652
     atom  151 type  4   force =    -0.00000076    0.00000050    0.00000633
     atom  152 type  4   force =     0.00000003    0.00000139    0.00000729
     atom  153 type  4   force =     0.00000029    0.00000034    0.00000867
     atom  154 type  4   force =    -0.00000040   -0.00000068    0.00000587
     atom  155 type  4   force =    -0.00000119   -0.00000130    0.00000945
     atom  156 type  4   force =    -0.00000017    0.00000059    0.00000921
     atom  157 type  4   force =     0.00000066    0.00000116    0.00000668
     atom  158 type  4   force =     0.00000102   -0.00000190    0.00000903
     atom  159 type  4   force =     0.00000201    0.00000165    0.00001049
     atom  160 type  4   force =    -0.00000271   -0.00000096    0.00001005
     atom  161 type  4   force =    -0.00000162    0.00000037    0.00001149
     atom  162 type  4   force =     0.00000279   -0.00000053    0.00001152
     atom  163 type  4   force =    -0.00000229   -0.00000182    0.00000992
     atom  164 type  4   force =     0.00000142    0.00000064    0.00000812
     atom  165 type  4   force =     0.00000064    0.00000113    0.00001142
     atom  166 type  4   force =    -0.00000056    0.00000101    0.00001043
     atom  167 type  4   force =    -0.00000037    0.00000105    0.00000965
     atom  168 type  4   force =     0.00000029   -0.00000137    0.00001000
     atom  169 type  4   force =    -0.00000188    0.00000023    0.00000726
     atom  170 type  4   force =     0.00000135   -0.00000023    0.00000996
     atom  171 type  4   force =     0.00000105   -0.00000020    0.00000365
     atom  172 type  4   force =     0.00000037    0.00000059    0.00000368
     atom  173 type  4   force =     0.00000120    0.00000085    0.00000638
     atom  174 type  4   force =    -0.00000047   -0.00000190    0.00000503
     atom  175 type  4   force =    -0.00000286    0.00000155    0.00000313
     atom  176 type  4   force =     0.00000202   -0.00000074    0.00000300
     atom  177 type  4   force =    -0.00000036   -0.00000282    0.00000461
     atom  178 type  4   force =     0.00000065    0.00000247    0.00000294
     atom  179 type  4   force =    -0.00000265    0.00000185    0.00000446
     atom  180 type  4   force =     0.00000203   -0.00000080    0.00000517
     atom  181 type  4   force =     0.00000053    0.00000051    0.00000399
     atom  182 type  4   force =     0.00000028   -0.00000172    0.00000380
     atom  183 type  4   force =    -0.00000196   -0.00000131    0.00000425
     atom  184 type  4   force =     0.00000304    0.00000190    0.00000444
     atom  185 type  4   force =     0.00000246   -0.00000086    0.00000398
     atom  186 type  4   force =    -0.00000130    0.00000033    0.00000418
     atom  187 type  4   force =    -0.00000131    0.00000236    0.00000372
     atom  188 type  4   force =    -0.00000090   -0.00000093    0.00000219
     atom  189 type  4   force =    -0.00000109    0.00000174    0.00000226
     atom  190 type  4   force =    -0.00000011   -0.00000187    0.00000151
     atom  191 type  4   force =     0.00000064   -0.00000061    0.00000071
     atom  192 type  4   force =    -0.00000046   -0.00000067    0.00000212
     atom  193 type  4   force =    -0.00000067   -0.00000115   -0.00000103
     atom  194 type  4   force =     0.00000087    0.00000023   -0.00000041
     atom  195 type  4   force =    -0.00000227    0.00000053   -0.00000164
     atom  196 type  4   force =     0.00000193   -0.00000074   -0.00000289
     atom  197 type  4   force =     0.00000125    0.00000125   -0.00000172
     atom  198 type  4   force =    -0.00000069   -0.00000048   -0.00000202
     atom  199 type  4   force =     0.00000110    0.00000026   -0.00000101
     atom  200 type  4   force =    -0.00000125    0.00000014   -0.00000143
     atom  201 type  4   force =     0.00000128    0.00000005   -0.00000040
     atom  202 type  4   force =    -0.00000075    0.00000025   -0.00000121
     atom  203 type  4   force =     0.00000063   -0.00000036   -0.00000345
     atom  204 type  4   force =    -0.00000040    0.00000062   -0.00000361
     atom  205 type  4   force =    -0.00000043   -0.00000186   -0.00000011
     atom  206 type  4   force =     0.00000008    0.00000090   -0.00000061
     atom  207 type  4   force =     0.00000126   -0.00000034   -0.00000347
     atom  208 type  4   force =    -0.00000141    0.00000001   -0.00000387
     atom  209 type  4   force =    -0.00000079    0.00000035   -0.00000378
     atom  210 type  4   force =     0.00000123    0.00000011   -0.00000411
     atom  211 type  4   force =     0.00000128    0.00000011   -0.00000097
     atom  212 type  4   force =    -0.00000143   -0.00000080   -0.00000150
     atom  213 type  4   force =    -0.00000154    0.00000061   -0.00000481
     atom  214 type  4   force =     0.00000153    0.00000063   -0.00000471
     atom  215 type  4   force =    -0.00000102   -0.00000165   -0.00000118
     atom  216 type  4   force =     0.00000086    0.00000139   -0.00000086
     atom  217 type  4   force =     0.00000158    0.00000243   -0.00000421
     atom  218 type  4   force =    -0.00000120   -0.00000254   -0.00000407
     atom  219 type  4   force =    -0.00000044    0.00000267   -0.00000135
     atom  220 type  4   force =     0.00000133   -0.00000310   -0.00000142
     atom  221 type  4   force =    -0.00000055   -0.00000307   -0.00000372
     atom  222 type  4   force =    -0.00000002    0.00000257   -0.00000462
     atom  223 type  4   force =     0.00000026    0.00000146   -0.00000172
     atom  224 type  4   force =    -0.00000022   -0.00000100   -0.00000162
     atom  225 type  4   force =     0.00000179   -0.00000083   -0.00000161
     atom  226 type  4   force =    -0.00000169    0.00000120   -0.00000132
     atom  227 type  4   force =     0.00000024    0.00000013   -0.00000453
     atom  228 type  4   force =    -0.00000113   -0.00000102   -0.00000444
     atom  229 type  4   force =     0.00000100    0.00000056    0.00000038
     atom  230 type  4   force =    -0.00000117    0.00000003    0.00000035
     atom  231 type  4   force =     0.00000127   -0.00000155   -0.00000280
     atom  232 type  4   force =    -0.00000083    0.00000169   -0.00000353
     atom  233 type  4   force =     0.00000005   -0.00000220   -0.00000288
     atom  234 type  4   force =     0.00000034    0.00000229   -0.00000296
     atom  235 type  4   force =    -0.00000054   -0.00000046   -0.00000086
     atom  236 type  4   force =     0.00000056    0.00000043   -0.00000033
     atom  237 type  4   force =    -0.00000054    0.00000162   -0.00000188
     atom  238 type  4   force =     0.00000095   -0.00000171   -0.00000213
     atom  239 type  4   force =     0.00000046    0.00000049    0.00000020
     atom  240 type  4   force =    -0.00000079   -0.00000076   -0.00000038
     atom  241 type  4   force =    -0.00000017   -0.00000178   -0.00000216
     atom  242 type  4   force =    -0.00000005    0.00000163   -0.00000258
     atom  243 type  4   force =    -0.00000156    0.00000019   -0.00000171
     atom  244 type  4   force =     0.00000092   -0.00000014   -0.00000115
     atom  245 type  4   force =     0.00000101   -0.00000010   -0.00000372
     atom  246 type  4   force =    -0.00000101    0.00000028   -0.00000307
     atom  247 type  4   force =     0.00000132    0.00000033   -0.00000226
     atom  248 type  4   force =    -0.00000086   -0.00000060   -0.00000124
     atom  249 type  4   force =     0.00000143    0.00000016   -0.00000179
     atom  250 type  4   force =    -0.00000059    0.00000069   -0.00000182
     atom  251 type  4   force =     0.00000062   -0.00000092   -0.00000388
     atom  252 type  4   force =    -0.00000009    0.00000046   -0.00000370
     atom  253 type  4   force =    -0.00000047   -0.00000076   -0.00000073
     atom  254 type  4   force =     0.00000035   -0.00000018   -0.00000098
     atom  255 type  4   force =     0.00000147   -0.00000019   -0.00000227
     atom  256 type  4   force =    -0.00000159   -0.00000001   -0.00000157
     atom  257 type  4   force =    -0.00000225    0.00000033   -0.00000196
     atom  258 type  4   force =     0.00000102    0.00000038   -0.00000224
     atom  259 type  4   force =     0.00000051    0.00000014   -0.00000041
     atom  260 type  4   force =    -0.00000100   -0.00000089   -0.00000001
     atom  261 type  4   force =    -0.00000138    0.00000101   -0.00000187
     atom  262 type  4   force =     0.00000207    0.00000023   -0.00000123
     atom  263 type  4   force =    -0.00000083   -0.00000122    0.00000038
     atom  264 type  4   force =     0.00000078    0.00000095   -0.00000042
     atom  265 type  4   force =     0.00000124    0.00000124   -0.00000287
     atom  266 type  4   force =    -0.00000052   -0.00000157   -0.00000195
     atom  267 type  4   force =    -0.00000148    0.00000298   -0.00000360
     atom  268 type  4   force =     0.00000047   -0.00000204   -0.00000101
     atom  269 type  4   force =    -0.00000034   -0.00000095   -0.00000156
     atom  270 type  4   force =     0.00000160    0.00000101   -0.00000277
     atom  271 type  4   force =    -0.00000084    0.00000125   -0.00000123
     atom  272 type  4   force =     0.00000330   -0.00000255   -0.00000280
     atom  273 type  4   force =    -0.00000213   -0.00000388   -0.00000220
     atom  274 type  4   force =     0.00000033    0.00000226   -0.00000023
     atom  275 type  4   force =     0.00000126    0.00000078   -0.00000281
     atom  276 type  4   force =    -0.00000135   -0.00000078   -0.00000166
     atom  277 type  4   force =     0.00000176    0.00000125    0.00000049
     atom  278 type  4   force =    -0.00000175   -0.00000159    0.00000069
     atom  279 type  4   force =     0.00000272   -0.00000302    0.00000197
     atom  280 type  4   force =    -0.00000066    0.00000521    0.00000324
     atom  281 type  4   force =    -0.00000076   -0.00000330    0.00000200
     atom  282 type  4   force =    -0.00000399    0.00000427    0.00000296
     atom  283 type  4   force =    -0.00000144   -0.00000103    0.00000083
     atom  284 type  4   force =     0.00000106    0.00000094    0.00000051
     atom  285 type  4   force =    -0.00000024    0.00000102    0.00000229
     atom  286 type  4   force =     0.00000123   -0.00000453    0.00000419
     atom  287 type  4   force =    -0.00000103    0.00000111    0.00000143
     atom  288 type  4   force =     0.00000163    0.00000007    0.00000112

     Total force =     0.117714     Total SCF correction =     0.000098

     Writing all to output data dir ./temp/M0D0035Ha.save/

     init_run     :      6.08s CPU      5.47s WALL (       1 calls)
     electrons    :    501.21s CPU    427.57s WALL (       1 calls)
     forces       :      4.22s CPU      3.08s WALL (       1 calls)

     Called by init_run:
     wfcinit      :      3.01s CPU      3.06s WALL (       1 calls)
     potinit      :      0.91s CPU      0.50s WALL (       1 calls)
     hinit0       :      1.55s CPU      1.29s WALL (       1 calls)

     Called by electrons:
     c_bands      :    463.59s CPU    407.98s WALL (      27 calls)
     sum_band     :     35.38s CPU     17.83s WALL (      27 calls)
     v_of_rho     :      1.72s CPU      1.14s WALL (      28 calls)
     mix_rho      :      0.39s CPU      0.29s WALL (      27 calls)

     Called by c_bands:
     init_us_2    :      2.46s CPU      1.30s WALL (      55 calls)
     init_us_2:cp :      2.46s CPU      1.30s WALL (      55 calls)
     regterg      :    458.29s CPU    404.80s WALL (      37 calls)

     Called by *egterg:
     rdiaghg      :    122.10s CPU     70.03s WALL (     503 calls)
     h_psi        :    221.95s CPU    220.43s WALL (     504 calls)
     g_psi        :      0.81s CPU      0.41s WALL (     466 calls)

     Called by h_psi:
     h_psi:calbec :     44.63s CPU     44.67s WALL (     504 calls)
     vloc_psi     :    134.44s CPU    132.83s WALL (     504 calls)
     add_vuspsi   :     41.45s CPU     42.21s WALL (     504 calls)

     General routines
     calbec       :     45.95s CPU     45.98s WALL (     508 calls)
     fft          :      1.29s CPU      1.06s WALL (     232 calls)
     ffts         :      0.15s CPU      0.08s WALL (      27 calls)
     fftw         :    154.79s CPU    138.02s WALL (  145290 calls)

     Parallel routines

     PWSCF        :   8m44.03s CPU   7m32.10s WALL


   This run was terminated on:  16:53:53  20Mar2025            

=------------------------------------------------------------------------------=
   JOB DONE.
=------------------------------------------------------------------------------=
