
     Program PWSCF v.7.2 starts on 20Mar2025 at 16: 8: 8 

     This program is part of the open-source Quantum ESPRESSO suite
     for quantum simulation of materials; please cite
         "P. Giannozzi et al., J. Phys.:Condens. Matter 21 395502 (2009);
         "P. Giannozzi et al., J. Phys.:Condens. Matter 29 465901 (2017);
         "P. Giannozzi et al., J. Chem. Phys. 152 154105 (2020);
          URL http://www.quantum-espresso.org", 
     in publications or presentations arising from this work. More details at
     http://www.quantum-espresso.org/quote

     Parallel version (MPI & OpenMP), running on     480 processor cores
     Number of MPI processes:               240
     Threads/MPI process:                     2

     MPI processes distributed on    10 nodes
     727155 MiB available memory on the printing compute node when the environment starts

     Reading input from LLZO_LaTermination_0D00125Ha.scf.in

     Current dimensions of program PWSCF are:
     Max number of different atomic species (ntypx) = 10
     Max number of k-points (npk) =  40000
     Max angular momentum in pseudopotentials (lmaxx) =  4

     gamma-point specific algorithms are used

     R & G space division:  proc/nbgrp/npool/nimage =     240
     Subspace diagonalization in iterative solution of the eigenvalue problem:
     one sub-group per band group will be used
     ELPA distributed-memory algorithm (size of sub-group: 11* 11 procs)


     Parallelization info
     --------------------
     sticks:   dense  smooth     PW     G-vecs:    dense   smooth      PW
     Min          50      50     11                18754    18754    2312
     Max          52      52     14                18892    18892    2426
     Sum       12387   12387   3101              4520369  4520369  565145

     Using Slab Decomposition



     bravais-lattice index     =            0
     lattice parameter (alat)  =      21.3406  a.u.
     unit-cell volume          =   39187.6345 (a.u.)^3
     number of atoms/cell      =          288
     number of atomic types    =            4
     number of electrons       =      1800.00
     number of Kohn-Sham states=         1080
     kinetic-energy cutoff     =      90.0000  Ry
     charge density cutoff     =     360.0000  Ry
     scf convergence threshold =      1.0E-09
     mixing beta               =       0.7000
     number of iterations used =            8  plain     mixing
     Exchange-correlation= PBE
                           (   1   4   3   4   0   0   0)

     celldm(1)=  21.340634  celldm(2)=   0.000000  celldm(3)=   0.000000
     celldm(4)=   0.000000  celldm(5)=   0.000000  celldm(6)=   0.000000

     crystal axes: (cart. coord. in units of alat)
               a(1) = (   1.000000   0.000000   0.000000 )  
               a(2) = (  -0.316403   0.948624   0.000000 )  
               a(3) = (   0.000000   0.000000   4.250429 )  

     reciprocal axes: (cart. coord. in units 2 pi/alat)
               b(1) = (  1.000000  0.333539 -0.000000 )  
               b(2) = (  0.000000  1.054158  0.000000 )  
               b(3) = (  0.000000 -0.000000  0.235270 )  


     PseudoPot. # 1 for Li read from file:
     ./Li.upf
     MD5 check sum: 36b212ba84a3343c64836813e23b5a31
     Pseudo is Norm-conserving, Zval =  3.0
     Generated using ONCVPSP code by D. R. Hamann
     Using radial grid of 1938 points,  4 beta functions with: 
                l(1) =   0
                l(2) =   0
                l(3) =   1
                l(4) =   1

     PseudoPot. # 2 for La read from file:
     ./La.upf
     MD5 check sum: 94ac605e04917972278bb538f6bd832e
     Pseudo is Norm-conserving + core correction, Zval = 11.0
     Generated using ONCVPSP code by D. R. Hamann
     Using radial grid of 1816 points,  8 beta functions with: 
                l(1) =   0
                l(2) =   0
                l(3) =   1
                l(4) =   1
                l(5) =   2
                l(6) =   2
                l(7) =   3
                l(8) =   3

     PseudoPot. # 3 for Zr read from file:
     ./Zr.upf
     MD5 check sum: 7356faafce8c11995bde75aded518977
     Pseudo is Norm-conserving + core correction, Zval = 12.0
     Generated using ONCVPSP code by D. R. Hamann
     Using radial grid of 1612 points,  6 beta functions with: 
                l(1) =   0
                l(2) =   0
                l(3) =   1
                l(4) =   1
                l(5) =   2
                l(6) =   2

     PseudoPot. # 4 for O  read from file:
     ./O.upf
     MD5 check sum: f9f408bc39120c85e44a0bb1c57dbd9f
     Pseudo is Norm-conserving + core correction, Zval =  6.0
     Generated using ONCVPSP code by D. R. Hamann
     Using radial grid of  934 points,  5 beta functions with: 
                l(1) =   0
                l(2) =   0
                l(3) =   1
                l(4) =   1
                l(5) =   2

     atomic species   valence    mass     pseudopotential
        Li             3.00     6.90000     Li( 1.00)
        La            11.00   139.00000     La( 1.00)
        Zr            12.00    91.22400     Zr( 1.00)
        O              6.00    16.00000     O ( 1.00)

     No symmetry found



   Cartesian axes

     site n.     atom                  positions (alat units)
         1           Li  tau(   1) = (  -0.0401741   0.5314518   0.9528658  )
         2           Li  tau(   2) = (   0.1309308   0.0696081   0.9385469  )
         3           Li  tau(   3) = (   0.8538406   0.0434466   0.9666809  )
         4           Li  tau(   4) = (   0.7118945   0.5489094   1.0005721  )
         5           Li  tau(   5) = (  -0.2409594   0.7769992   1.0208612  )
         6           Li  tau(   6) = (   0.3459555   0.9486075   1.0723897  )
         7           Li  tau(   7) = (   0.1356213   0.5221967   1.0728849  )
         8           Li  tau(   8) = (  -0.1896788   0.9477617   1.1409935  )
         9           Li  tau(   9) = (   0.6170900   0.5210270   1.1890965  )
        10           Li  tau(  10) = (   0.2309895   0.6668810   1.2076216  )
        11           Li  tau(  11) = (   0.2165960   0.9161132   1.2242957  )
        12           Li  tau(  12) = (   0.4182676   0.5328995   1.2974048  )
        13           Li  tau(  13) = (   0.2942079   0.0022691   1.2965237  )
        14           Li  tau(  14) = (   0.1771489   0.4655346   1.2882004  )
        15           Li  tau(  15) = (   0.6393455   0.1375649   1.3415002  )
        16           Li  tau(  16) = (   0.1335419   0.1468095   1.3351564  )
        17           Li  tau(  17) = (   0.6320857   0.3742104   1.3490262  )
        18           Li  tau(  18) = (   0.0399456   0.3312435   1.4167569  )
        19           Li  tau(  19) = (   0.8171725   0.2454882   1.4305787  )
        20           Li  tau(  20) = (   0.5613585   0.5676589   1.4466564  )
        21           Li  tau(  21) = (  -0.1079433   0.8954757   1.5056956  )
        22           Li  tau(  22) = (   0.7056349   0.1025367   1.5792814  )
        23           Li  tau(  23) = (   0.0320763   0.4625938   1.6111084  )
        24           Li  tau(  24) = (  -0.2553978   0.7734398   1.6148849  )
        25           Li  tau(  25) = (   0.5413538   0.6917385   1.6240346  )
        26           Li  tau(  26) = (  -0.0635491   0.6739187   1.6619951  )
        27           Li  tau(  27) = (  -0.0532046   0.8916387   1.7146366  )
        28           Li  tau(  28) = (   0.4428583   0.8747493   1.7009824  )
        29           Li  tau(  29) = (   0.5612555   0.0651713   1.7472496  )
        30           Li  tau(  30) = (   0.4193567   0.5433533   1.7379959  )
        31           Li  tau(  31) = (   0.2128411   0.4645996   1.7790350  )
        32           Li  tau(  32) = (   0.3581659   0.1027038   1.8261314  )
        33           Li  tau(  33) = (   0.3737168   0.3226177   1.8347685  )
        34           Li  tau(  34) = (  -0.0137717   0.4956248   1.8308839  )
        35           Li  tau(  35) = (   0.7503689   0.0750828   1.8671986  )
        36           Li  tau(  36) = (   0.4481022   0.4998232   1.9550951  )
        37           Li  tau(  37) = (   0.2360226   0.0770414   2.0097381  )
        38           Li  tau(  38) = (   0.8478227   0.2280218   2.0167662  )
        39           Li  tau(  39) = (  -0.1413950   0.4617279   2.0265256  )
        40           Li  tau(  40) = (   0.0279178   0.0844800   2.0985060  )
        41           Li  tau(  41) = (   0.6418812   0.4963596   2.1045683  )
        42           Li  tau(  42) = (   0.8006875   0.0225167   2.1037308  )
        43           Li  tau(  43) = (  -0.0415310   0.6284323   2.1538031  )
        44           Li  tau(  44) = (   0.4593846   0.6267310   2.1528822  )
        45           Li  tau(  45) = (  -0.0515820   0.8631856   2.1612773  )
        46           Li  tau(  46) = (   0.3581290   0.8224719   2.2309911  )
        47           Li  tau(  47) = (   0.1405007   0.7382607   2.2406643  )
        48           Li  tau(  48) = (   0.1905771   0.1113115   2.2480655  )
        49           Li  tau(  49) = (   0.5237185   0.4442202   2.3019042  )
        50           Li  tau(  50) = (   0.0237434   0.5980741   2.3881179  )
        51           Li  tau(  51) = (   0.6650222   0.0049314   2.4262732  )
        52           Li  tau(  52) = (   0.3814689   0.3172837   2.4230060  )
        53           Li  tau(  53) = (   0.1743810   0.2345610   2.4327829  )
        54           Li  tau(  54) = (   0.5710180   0.2062794   2.4867857  )
        55           Li  tau(  55) = (   0.5744325   0.4303424   2.5199329  )
        56           Li  tau(  56) = (   0.0740953   0.4177703   2.5111206  )
        57           Li  tau(  57) = (  -0.1187133   0.5610496   2.5584903  )
        58           Li  tau(  58) = (   0.0519769   0.0928062   2.5487406  )
        59           Li  tau(  59) = (   0.8445231   0.0127362   2.5939746  )
        60           Li  tau(  60) = (   0.6735025   0.5957282   2.6343368  )
        61           Li  tau(  61) = (   0.6905210   0.8193168   2.6413502  )
        62           Li  tau(  62) = (   0.6141528   0.0352054   2.6511848  )
        63           Li  tau(  63) = (   0.0704674   0.5661842   2.6824947  )
        64           Li  tau(  64) = (   0.0798383   0.0473235   2.7647392  )
        65           Li  tau(  65) = (   0.5499762   0.5657113   2.8171637  )
        66           Li  tau(  66) = (   0.1662536   0.7290179   2.8267159  )
        67           Li  tau(  67) = (   0.4855838   0.0094029   2.8481367  )
        68           Li  tau(  68) = (   0.3401180   0.5827416   2.9065538  )
        69           Li  tau(  69) = (   0.2652705   0.0454758   2.9235969  )
        70           Li  tau(  70) = (   0.1217015   0.5209083   2.9105600  )
        71           Li  tau(  71) = (   0.5876259   0.1828756   2.9787643  )
        72           Li  tau(  72) = (   0.0617813   0.1805987   2.9756636  )
        73           Li  tau(  73) = (   0.6004570   0.4102551   2.9836354  )
        74           Li  tau(  74) = (  -0.0044596   0.3772326   3.0327479  )
        75           Li  tau(  75) = (   0.7948367   0.3024377   3.0594680  )
        76           Li  tau(  76) = (   0.5091677   0.6011066   3.0432121  )
        77           Li  tau(  77) = (  -0.1997955   0.9442241   3.0930330  )
        78           Li  tau(  78) = (   0.6580205   0.1960587   3.1845357  )
        79           Li  tau(  79) = (  -0.0412607   0.5050288   3.2200147  )
        80           Li  tau(  80) = (   0.6619108   0.8213569   3.2164610  )
        81           Li  tau(  81) = (   0.4667152   0.7100722   3.2487273  )
        82           Li  tau(  82) = (  -0.1334777   0.7277058   3.2617371  )
        83           Li  tau(  83) = (   0.1972213   0.0072415   3.3132217  )
        84           Li  tau(  84) = (   0.3841945   0.9459370   3.2958967  )
        85           La  tau(  85) = (   0.2479666   0.7487271   0.9240042  )
        86           La  tau(  86) = (   0.3750830   0.1032760   1.0320986  )
        87           La  tau(  87) = (   0.4108498   0.4413654   1.0291867  )
        88           La  tau(  88) = (   0.8806724   0.0952360   1.2177249  )
        89           La  tau(  89) = (  -0.1115144   0.4403914   1.2069898  )
        90           La  tau(  90) = (   0.3760646   0.2649240   1.3186865  )
        91           La  tau(  91) = (   0.7174323   0.7529258   1.3274736  )
        92           La  tau(  92) = (   0.3852939   0.8033441   1.4174621  )
        93           La  tau(  93) = (   0.0478718   0.6837298   1.4086100  )
        94           La  tau(  94) = (   0.5387887   0.3299230   1.6169527  )
        95           La  tau(  95) = (   0.1996293   0.2146087   1.6222216  )
        96           La  tau(  96) = (   0.2034911   0.7447059   1.7210685  )
        97           La  tau(  97) = (   0.8639961   0.2787414   1.7232570  )
        98           La  tau(  98) = (   0.7018434   0.5770634   1.8232028  )
        99           La  tau(  99) = (  -0.2970985   0.9351959   1.8305622  )
       100           La  tau( 100) = (   0.1948814   0.5804426   2.0269246  )
       101           La  tau( 101) = (   0.2008393   0.9361509   2.0269931  )
       102           La  tau( 102) = (   0.6942969   0.7614671   2.1289111  )
       103           La  tau( 103) = (   0.3560223   0.2917327   2.1280650  )
       104           La  tau( 104) = (   0.0159556   0.3485602   2.2304904  )
       105           La  tau( 105) = (   0.6801921   0.2308445   2.2312122  )
       106           La  tau( 106) = (  -0.1442088   0.8263428   2.4265752  )
       107           La  tau( 107) = (   0.5166062   0.7090018   2.4331518  )
       108           La  tau( 108) = (   0.8340010   0.2908115   2.5370335  )
       109           La  tau( 109) = (   0.1818851   0.7690818   2.5317492  )
       110           La  tau( 110) = (   0.3321930   0.1209856   2.6350903  )
       111           La  tau( 111) = (   0.3348582   0.4773195   2.6399246  )
       112           La  tau( 112) = (   0.8231528   0.1229007   2.8479358  )
       113           La  tau( 113) = (   0.8296707   0.4821995   2.8374207  )
       114           La  tau( 114) = (   0.3249933   0.3055389   2.9378795  )
       115           La  tau( 115) = (   0.6753111   0.7805866   2.9234142  )
       116           La  tau( 116) = (   0.3308863   0.8479971   3.0456944  )
       117           La  tau( 117) = (  -0.0074688   0.7242774   3.0356819  )
       118           La  tau( 118) = (   0.4847919   0.3992438   3.2352228  )
       119           La  tau( 119) = (   0.1520868   0.2500207   3.2277706  )
       120           La  tau( 120) = (   0.1491760   0.7643674   3.3264251  )
       121           Zr  tau( 121) = (   0.6377188   0.2615917   1.1116843  )
       122           Zr  tau( 122) = (   0.1174388   0.2619688   1.0910098  )
       123           Zr  tau( 123) = (   0.4878526   0.7432788   1.1127195  )
       124           Zr  tau( 124) = (  -0.0118360   0.7402248   1.0886267  )
       125           Zr  tau( 125) = (   0.9493535   0.0392864   1.5232742  )
       126           Zr  tau( 126) = (   0.7958436   0.5120100   1.5176883  )
       127           Zr  tau( 127) = (   0.4474616   0.0311370   1.5200999  )
       128           Zr  tau( 128) = (   0.2925957   0.5079530   1.5183259  )
       129           Zr  tau( 129) = (  -0.0498924   0.7555169   1.9267789  )
       130           Zr  tau( 130) = (   0.4498379   0.7560736   1.9266420  )
       131           Zr  tau( 131) = (   0.1077390   0.2831502   1.9269117  )
       132           Zr  tau( 132) = (   0.6092200   0.2826131   1.9249006  )
       133           Zr  tau( 133) = (   0.2663741   0.5278757   2.3322722  )
       134           Zr  tau( 134) = (   0.4263547   0.0549622   2.3305043  )
       135           Zr  tau( 135) = (   0.7661909   0.5279926   2.3318425  )
       136           Zr  tau( 136) = (   0.9236358   0.0541269   2.3323735  )
       137           Zr  tau( 137) = (   0.5807740   0.2999254   2.7412308  )
       138           Zr  tau( 138) = (   0.0797148   0.2994099   2.7383551  )
       139           Zr  tau( 139) = (   0.4219125   0.7757587   2.7384962  )
       140           Zr  tau( 140) = (  -0.0711412   0.7779923   2.7326979  )
       141           Zr  tau( 141) = (   0.8838133   0.0895808   3.1700434  )
       142           Zr  tau( 142) = (   0.7357321   0.5547446   3.1472268  )
       143           Zr  tau( 143) = (   0.3918753   0.0677421   3.1653210  )
       144           Zr  tau( 144) = (   0.2374013   0.5399984   3.1427109  )
       145           O   tau( 145) = (   0.4273855   0.8436099   0.9651490  )
       146           O   tau( 146) = (   0.0824292   0.6442089   0.9516886  )
       147           O   tau( 147) = (   0.5045727   0.2652518   0.9807854  )
       148           O   tau( 148) = (   0.2239161   0.2105859   0.9506815  )
       149           O   tau( 149) = (  -0.1014333   0.8834309   1.0067566  )
       150           O   tau( 150) = (   0.5577909   0.5941607   1.0322859  )
       151           O   tau( 151) = (   0.7494457   0.1356069   1.0524431  )
       152           O   tau( 152) = (   0.0171743   0.4030213   1.0406726  )
       153           O   tau( 153) = (   0.7280356   0.4147732   1.0831274  )
       154           O   tau( 154) = (   0.0126613   0.1121503   1.0480922  )
       155           O   tau( 155) = (   0.3212924   0.6382680   1.0707820  )
       156           O   tau( 156) = (   0.1522364   0.8556475   1.0656204  )
       157           O   tau( 157) = (  -0.1515598   0.6334951   1.0448072  )
       158           O   tau( 158) = (   0.6471026   0.8304250   1.1361875  )
       159           O   tau( 159) = (   0.2508743   0.3897829   1.1545287  )
       160           O   tau( 160) = (   0.5160530   0.1361178   1.1966360  )
       161           O   tau( 161) = (   0.5073038   0.3939765   1.2038700  )
       162           O   tau( 162) = (   0.2406841   0.1341097   1.1941272  )
       163           O   tau( 163) = (   0.3894770   0.8738009   1.2168197  )
       164           O   tau( 164) = (   0.0679953   0.6069637   1.2057346  )
       165           O   tau( 165) = (   0.0148968   0.2664882   1.2550713  )
       166           O   tau( 166) = (   0.7419805   0.2610841   1.2740031  )
       167           O   tau( 167) = (  -0.0793091   0.7998422   1.2561650  )
       168           O   tau( 168) = (   0.5142695   0.6692848   1.2867600  )
       169           O   tau( 169) = (   0.7120629   0.5281451   1.3489026  )
       170           O   tau( 170) = (   0.0344042   0.0151908   1.3568875  )
       171           O   tau( 171) = (   0.2666255   0.6046510   1.3601069  )
       172           O   tau( 172) = (   0.1714062   0.8648654   1.3751109  )
       173           O   tau( 173) = (   0.7887906   0.0709345   1.4308889  )
       174           O   tau( 174) = (  -0.0456162   0.4766592   1.4253234  )
       175           O   tau( 175) = (   0.2858863   0.0920937   1.4427768  )
       176           O   tau( 176) = (   0.4538073   0.4384712   1.4438990  )
       177           O   tau( 177) = (   0.2098197   0.3553652   1.4401462  )
       178           O   tau( 178) = (   0.5301429   0.1870787   1.4556395  )
       179           O   tau( 179) = (  -0.1547780   0.6971069   1.5008447  )
       180           O   tau( 180) = (   0.5945490   0.8028747   1.5065814  )
       181           O   tau( 181) = (  -0.0068685   0.2205628   1.5383633  )
       182           O   tau( 182) = (   0.7426216   0.3340107   1.5459333  )
       183           O   tau( 183) = (   0.0399908   0.8296294   1.5899910  )
       184           O   tau( 184) = (   0.3789678   0.6570843   1.5930099  )
       185           O   tau( 185) = (   0.2891978   0.9158865   1.6017976  )
       186           O   tau( 186) = (   0.1382820   0.5859127   1.5895691  )
       187           O   tau( 187) = (   0.6362398   0.5526996   1.6108003  )
       188           O   tau( 188) = (   0.1055337   0.0029184   1.6240961  )
       189           O   tau( 189) = (   0.4065014   0.1404890   1.6685327  )
       190           O   tau( 190) = (   0.3276682   0.4006998   1.6706198  )
       191           O   tau( 191) = (   0.8574166   0.0606502   1.6871912  )
       192           O   tau( 192) = (  -0.1206837   0.5058734   1.6873595  )
       193           O   tau( 193) = (   0.0748446   0.3609066   1.7569096  )
       194           O   tau( 194) = (   0.6583611   0.2018628   1.7601440  )
       195           O   tau( 195) = (  -0.1617902   0.7586617   1.7750471  )
       196           O   tau( 196) = (   0.5664267   0.7537696   1.7783762  )
       197           O   tau( 197) = (   0.5255665   0.4202697   1.8256546  )
       198           O   tau( 198) = (   0.1941281   0.1421395   1.8360412  )
       199           O   tau( 199) = (   0.0728304   0.6332688   1.8516382  )
       200           O   tau( 200) = (   0.3375721   0.8844472   1.8456956  )
       201           O   tau( 201) = (   0.0656870   0.8861457   1.8550115  )
       202           O   tau( 202) = (   0.3354542   0.6204574   1.8600583  )
       203           O   tau( 203) = (  -0.0472477   0.1800914   1.9001238  )
       204           O   tau( 204) = (   0.7686233   0.3809156   1.9053961  )
       205           O   tau( 205) = (   0.4483865   0.1861070   1.9411677  )
       206           O   tau( 206) = (   0.2649960   0.3880809   1.9432240  )
       207           O   tau( 207) = (   0.5709288   0.8839403   1.9944713  )
       208           O   tau( 208) = (  -0.1673537   0.6276893   1.9977306  )
       209           O   tau( 209) = (  -0.1654682   0.8820626   2.0083693  )
       210           O   tau( 210) = (   0.5600381   0.6235178   2.0052012  )
       211           O   tau( 211) = (   0.0245008   0.4227645   2.0207037  )
       212           O   tau( 212) = (   0.6934143   0.1416167   2.0188874  )
       213           O   tau( 213) = (   0.3325048   0.7614689   2.0732631  )
       214           O   tau( 214) = (   0.0600008   0.7567758   2.0811248  )
       215           O   tau( 215) = (   0.5600722   0.3542588   2.0917822  )
       216           O   tau( 216) = (   0.1457504   0.2075857   2.0956848  )
       217           O   tau( 217) = (   0.3424480   0.0663831   2.1616537  )
       218           O   tau( 218) = (   0.3499709   0.5045145   2.1651137  )
       219           O   tau( 219) = (   0.8907038   0.1580552   2.1773262  )
       220           O   tau( 220) = (   0.8085045   0.4187644   2.1847239  )
       221           O   tau( 221) = (   0.1059741   0.5637683   2.2383457  )
       222           O   tau( 222) = (   0.5853912   0.0192002   2.2375818  )
       223           O   tau( 223) = (   0.6054538   0.5901802   2.2525974  )
       224           O   tau( 224) = (  -0.2356788   0.9335534   2.2509666  )
       225           O   tau( 225) = (   0.5235546   0.8499673   2.2620540  )
       226           O   tau( 226) = (  -0.1502241   0.6836438   2.2648068  )
       227           O   tau( 227) = (   0.4759516   0.2367742   2.3122298  )
       228           O   tau( 228) = (   0.2252583   0.3452255   2.3158339  )
       229           O   tau( 229) = (   0.3089769   0.7106516   2.3507560  )
       230           O   tau( 230) = (   0.0598438   0.8236304   2.3555445  )
       231           O   tau( 231) = (   0.6748381   0.3761921   2.3982177  )
       232           O   tau( 232) = (   0.0096835   0.2052172   2.4050826  )
       233           O   tau( 233) = (  -0.0767336   0.4627083   2.4129477  )
       234           O   tau( 234) = (   0.7684597   0.1308599   2.4072604  )
       235           O   tau( 235) = (   0.2654941   0.0921704   2.4220922  )
       236           O   tau( 236) = (   0.4239097   0.4926305   2.4310885  )
       237           O   tau( 237) = (   0.7246502   0.6382534   2.4789915  )
       238           O   tau( 238) = (   0.6455974   0.8977877   2.4841063  )
       239           O   tau( 239) = (   0.1746452   0.5506560   2.4963779  )
       240           O   tau( 240) = (   0.5090804   0.0462714   2.5006341  )
       241           O   tau( 241) = (   0.3895869   0.8531902   2.5696702  )
       242           O   tau( 242) = (  -0.0222483   0.6973276   2.5697583  )
       243           O   tau( 243) = (   0.4682703   0.2986710   2.5875376  )
       244           O   tau( 244) = (   0.1963774   0.2930768   2.5898446  )
       245           O   tau( 245) = (  -0.1556603   0.9168492   2.6368487  )
       246           O   tau( 246) = (   0.5093213   0.6349919   2.6490719  )
       247           O   tau( 247) = (   0.6988948   0.1762794   2.6637520  )
       248           O   tau( 248) = (  -0.0306307   0.4300256   2.6567819  )
       249           O   tau( 249) = (   0.6941465   0.4300435   2.6652903  )
       250           O   tau( 250) = (  -0.0348807   0.1650300   2.6716964  )
       251           O   tau( 251) = (   0.2682703   0.6705035   2.7126025  )
       252           O   tau( 252) = (   0.0876737   0.8760775   2.7198171  )
       253           O   tau( 253) = (   0.7674728   0.6823684   2.7451133  )
       254           O   tau( 254) = (   0.5784280   0.8815986   2.7516547  )
       255           O   tau( 255) = (   0.2016423   0.4283146   2.8021403  )
       256           O   tau( 256) = (   0.4631313   0.1753190   2.8217422  )
       257           O   tau( 257) = (   0.4604479   0.4266897   2.8158828  )
       258           O   tau( 258) = (   0.1893437   0.1692683   2.8197750  )
       259           O   tau( 259) = (   0.3341957   0.9123330   2.8338235  )
       260           O   tau( 260) = (   0.0109518   0.6377609   2.8309482  )
       261           O   tau( 261) = (  -0.0405151   0.3044934   2.8830219  )
       262           O   tau( 262) = (   0.6919956   0.3036649   2.8916371  )
       263           O   tau( 263) = (  -0.1219692   0.8480587   2.8995149  )
       264           O   tau( 264) = (   0.4601571   0.7057095   2.9116319  )
       265           O   tau( 265) = (   0.6610157   0.5647212   2.9590270  )
       266           O   tau( 266) = (   0.9721176   0.0366668   2.9864638  )
       267           O   tau( 267) = (   0.2062559   0.6531552   2.9902705  )
       268           O   tau( 268) = (   0.1173061   0.9087102   3.0123843  )
       269           O   tau( 269) = (   0.7308552   0.1106778   3.0466528  )
       270           O   tau( 270) = (  -0.1039457   0.5145492   3.0462299  )
       271           O   tau( 271) = (   0.2352366   0.1314950   3.0693376  )
       272           O   tau( 272) = (   0.3974793   0.4778629   3.0590249  )
       273           O   tau( 273) = (   0.1584567   0.3955862   3.0575547  )
       274           O   tau( 274) = (   0.4783659   0.2212572   3.1116490  )
       275           O   tau( 275) = (  -0.2250217   0.7449031   3.1155313  )
       276           O   tau( 276) = (   0.5003556   0.8579194   3.1855030  )
       277           O   tau( 277) = (  -0.0398109   0.2555246   3.1385110  )
       278           O   tau( 278) = (   0.6721747   0.3781719   3.1448816  )
       279           O   tau( 279) = (  -0.0128929   0.8464739   3.2354956  )
       280           O   tau( 280) = (   0.3073175   0.6932600   3.2299859  )
       281           O   tau( 281) = (   0.2247218   0.9322135   3.2444881  )
       282           O   tau( 282) = (   0.0815148   0.6133238   3.2143656  )
       283           O   tau( 283) = (   0.5648201   0.5886521   3.2126606  )
       284           O   tau( 284) = (   0.0469442   0.0332460   3.2464786  )
       285           O   tau( 285) = (   0.3020974   0.1360316   3.3077066  )
       286           O   tau( 286) = (   0.2794488   0.4199818   3.2760468  )
       287           O   tau( 287) = (   0.7704661   0.1392517   3.2929744  )
       288           O   tau( 288) = (  -0.1679624   0.5739047   3.2927061  )

     number of k points=     1  Fermi-Dirac smearing, width (Ry)=  0.0000
                       cart. coord. in units 2pi/alat
        k(    1) = (   0.0000000   0.0000000   0.0000000), wk =   2.0000000

     Dense  grid:  2260185 G-vectors     FFT dimensions: ( 135, 135, 576)

     Estimated max dynamical RAM per process >     229.15 MB

     Estimated total dynamical RAM >      53.71 GB

     Initial potential from superposition of free atoms

     starting charge    1799.2393, renormalised to    1800.0000

     negative rho (up, down):  4.061E-04 0.000E+00

     Adding external electric field

     Computed dipole along edir(3) : 
        Dipole               -0.0004 Ry au,         -0.0010 Debye
        Dipole field         -0.0000 Ry au, 

        E field amplitude [Ha a.u.]:  1.2500E-03
        Potential amp.        0.1814 Ry
        Total length         72.5655 bohr

     Starting wfcs are 1344 atomic wfcs

     total cpu time spent up to now is        5.2 secs

     Self-consistent Calculation

     iteration #  1     ecut=    90.00 Ry     beta= 0.70
     Davidson diagonalization with overlap
     ethr =  1.00E-02,  avg # of iterations =  2.0

     negative rho (up, down):  1.128E-04 0.000E+00

     Adding external electric field

     Computed dipole along edir(3) : 
        Dipole                1.9689 Ry au,          5.0046 Debye
        Dipole field          0.0006 Ry au, 

        E field amplitude [Ha a.u.]:  1.2500E-03
        Potential amp.        0.0898 Ry
        Total length         72.5655 bohr


     total cpu time spent up to now is       11.9 secs

     total energy              =  -10936.69814171 Ry
     estimated scf accuracy    <      84.69048312 Ry

     iteration #  2     ecut=    90.00 Ry     beta= 0.70
     Davidson diagonalization with overlap
     ethr =  4.71E-03,  avg # of iterations =  3.0

     negative rho (up, down):  4.075E-05 0.000E+00

     Adding external electric field

     Computed dipole along edir(3) : 
        Dipole               21.6861 Ry au,         55.1205 Debye
        Dipole field          0.0070 Ry au, 

        E field amplitude [Ha a.u.]:  1.2500E-03
        Potential amp.       -0.8278 Ry
        Total length         72.5655 bohr


     total cpu time spent up to now is       21.6 secs

     total energy              =  -10929.17711354 Ry
     estimated scf accuracy    <     236.79465344 Ry

     iteration #  3     ecut=    90.00 Ry     beta= 0.70
     Davidson diagonalization with overlap
     ethr =  4.71E-03,  avg # of iterations =  6.0

     negative rho (up, down):  4.007E-05 0.000E+00

     Adding external electric field

     Computed dipole along edir(3) : 
        Dipole               -2.2369 Ry au,         -5.6856 Debye
        Dipole field         -0.0007 Ry au, 

        E field amplitude [Ha a.u.]:  1.2500E-03
        Potential amp.        0.2855 Ry
        Total length         72.5655 bohr


     total cpu time spent up to now is       31.7 secs

     total energy              =  -10888.70785925 Ry
     estimated scf accuracy    <   12772.10910481 Ry

     iteration #  4     ecut=    90.00 Ry     beta= 0.70
     Davidson diagonalization with overlap
     ethr =  4.71E-03,  avg # of iterations = 14.0

     negative rho (up, down):  2.677E-05 0.000E+00

     Adding external electric field

     Computed dipole along edir(3) : 
        Dipole                7.8105 Ry au,         19.8522 Debye
        Dipole field          0.0025 Ry au, 

        E field amplitude [Ha a.u.]:  1.2500E-03
        Potential amp.       -0.1821 Ry
        Total length         72.5655 bohr


     total cpu time spent up to now is       48.4 secs

     total energy              =  -10887.69335303 Ry
     estimated scf accuracy    <   29931.81518365 Ry

     iteration #  5     ecut=    90.00 Ry     beta= 0.70
     Davidson diagonalization with overlap
     ethr =  4.71E-03,  avg # of iterations =  7.0

     negative rho (up, down):  3.222E-06 0.000E+00

     Adding external electric field

     Computed dipole along edir(3) : 
        Dipole                9.4093 Ry au,         23.9161 Debye
        Dipole field          0.0030 Ry au, 

        E field amplitude [Ha a.u.]:  1.2500E-03
        Potential amp.       -0.2565 Ry
        Total length         72.5655 bohr


     total cpu time spent up to now is       57.1 secs

     total energy              =  -10971.77218917 Ry
     estimated scf accuracy    <     236.85900594 Ry

     iteration #  6     ecut=    90.00 Ry     beta= 0.70
     Davidson diagonalization with overlap
     ethr =  4.71E-03,  avg # of iterations =  4.0

     Adding external electric field

     Computed dipole along edir(3) : 
        Dipole                3.5493 Ry au,          9.0215 Debye
        Dipole field          0.0011 Ry au, 

        E field amplitude [Ha a.u.]:  1.2500E-03
        Potential amp.        0.0162 Ry
        Total length         72.5655 bohr


     total cpu time spent up to now is       63.9 secs

     total energy              =  -10979.35342281 Ry
     estimated scf accuracy    <       7.43303996 Ry

     iteration #  7     ecut=    90.00 Ry     beta= 0.70
     Davidson diagonalization with overlap
     ethr =  4.13E-04,  avg # of iterations = 12.0

     Adding external electric field

     Computed dipole along edir(3) : 
        Dipole                2.7639 Ry au,          7.0250 Debye
        Dipole field          0.0009 Ry au, 

        E field amplitude [Ha a.u.]:  1.2500E-03
        Potential amp.        0.0528 Ry
        Total length         72.5655 bohr


     total cpu time spent up to now is       74.9 secs

     total energy              =  -10980.12173369 Ry
     estimated scf accuracy    <       2.11434030 Ry

     iteration #  8     ecut=    90.00 Ry     beta= 0.70
     Davidson diagonalization with overlap
     ethr =  1.17E-04,  avg # of iterations = 13.0

     negative rho (up, down):  6.128E-04 0.000E+00

     Adding external electric field

     Computed dipole along edir(3) : 
        Dipole                1.3250 Ry au,          3.3678 Debye
        Dipole field          0.0004 Ry au, 

        E field amplitude [Ha a.u.]:  1.2500E-03
        Potential amp.        0.1197 Ry
        Total length         72.5655 bohr


     total cpu time spent up to now is       86.5 secs

     total energy              =  -10980.07658211 Ry
     estimated scf accuracy    <       0.87106289 Ry

     iteration #  9     ecut=    90.00 Ry     beta= 0.70
     Davidson diagonalization with overlap
     ethr =  4.84E-05,  avg # of iterations = 22.0

     negative rho (up, down):  5.131E-04 0.000E+00

     Adding external electric field

     Computed dipole along edir(3) : 
        Dipole                0.3210 Ry au,          0.8159 Debye
        Dipole field          0.0001 Ry au, 

        E field amplitude [Ha a.u.]:  1.2500E-03
        Potential amp.        0.1665 Ry
        Total length         72.5655 bohr


     total cpu time spent up to now is      108.6 secs

     total energy              =  -10980.22840079 Ry
     estimated scf accuracy    <       0.09489111 Ry

     iteration # 10     ecut=    90.00 Ry     beta= 0.70
     Davidson diagonalization with overlap
     ethr =  5.27E-06,  avg # of iterations = 53.0

     negative rho (up, down):  9.032E-05 0.000E+00

     Adding external electric field

     Computed dipole along edir(3) : 
        Dipole                0.7833 Ry au,          1.9909 Debye
        Dipole field          0.0003 Ry au, 

        E field amplitude [Ha a.u.]:  1.2500E-03
        Potential amp.        0.1450 Ry
        Total length         72.5655 bohr


     total cpu time spent up to now is      143.8 secs

     total energy              =  -10980.24207778 Ry
     estimated scf accuracy    <       0.08743542 Ry

     iteration # 11     ecut=    90.00 Ry     beta= 0.70
     Davidson diagonalization with overlap
     c_bands:  3 eigenvalues not converged
     ethr =  4.86E-06,  avg # of iterations = 20.0

     negative rho (up, down):  1.458E-05 0.000E+00

     Adding external electric field

     Computed dipole along edir(3) : 
        Dipole                0.7614 Ry au,          1.9352 Debye
        Dipole field          0.0002 Ry au, 

        E field amplitude [Ha a.u.]:  1.2500E-03
        Potential amp.        0.1460 Ry
        Total length         72.5655 bohr


     total cpu time spent up to now is      157.1 secs

     total energy              =  -10980.25484500 Ry
     estimated scf accuracy    <       0.00905348 Ry

     iteration # 12     ecut=    90.00 Ry     beta= 0.70
     Davidson diagonalization with overlap
     c_bands:  4 eigenvalues not converged
     ethr =  5.03E-07,  avg # of iterations = 20.0

     negative rho (up, down):  8.726E-08 0.000E+00

     Adding external electric field

     Computed dipole along edir(3) : 
        Dipole                0.6577 Ry au,          1.6717 Debye
        Dipole field          0.0002 Ry au, 

        E field amplitude [Ha a.u.]:  1.2500E-03
        Potential amp.        0.1508 Ry
        Total length         72.5655 bohr


     total cpu time spent up to now is      169.2 secs

     total energy              =  -10980.25601813 Ry
     estimated scf accuracy    <       0.00576699 Ry

     iteration # 13     ecut=    90.00 Ry     beta= 0.70
     Davidson diagonalization with overlap
     ethr =  3.20E-07,  avg # of iterations = 42.0

     negative rho (up, down):  5.269E-07 0.000E+00

     Adding external electric field

     Computed dipole along edir(3) : 
        Dipole                0.8120 Ry au,          2.0638 Debye
        Dipole field          0.0003 Ry au, 

        E field amplitude [Ha a.u.]:  1.2500E-03
        Potential amp.        0.1436 Ry
        Total length         72.5655 bohr


     total cpu time spent up to now is      196.1 secs

     total energy              =  -10980.25634510 Ry
     estimated scf accuracy    <       0.00487663 Ry

     iteration # 14     ecut=    90.00 Ry     beta= 0.70
     Davidson diagonalization with overlap
     c_bands:  4 eigenvalues not converged
     ethr =  2.71E-07,  avg # of iterations = 40.0

     negative rho (up, down):  1.383E-06 0.000E+00

     Adding external electric field

     Computed dipole along edir(3) : 
        Dipole                1.7552 Ry au,          4.4612 Debye
        Dipole field          0.0006 Ry au, 

        E field amplitude [Ha a.u.]:  1.2500E-03
        Potential amp.        0.0997 Ry
        Total length         72.5655 bohr


     total cpu time spent up to now is      213.3 secs

     total energy              =  -10980.25475896 Ry
     estimated scf accuracy    <       0.00228977 Ry

     iteration # 15     ecut=    90.00 Ry     beta= 0.70
     Davidson diagonalization with overlap
     c_bands:  1 eigenvalues not converged
     ethr =  1.27E-07,  avg # of iterations = 80.0

     negative rho (up, down):  5.832E-08 0.000E+00

     Adding external electric field

     Computed dipole along edir(3) : 
        Dipole                1.1514 Ry au,          2.9265 Debye
        Dipole field          0.0004 Ry au, 

        E field amplitude [Ha a.u.]:  1.2500E-03
        Potential amp.        0.1278 Ry
        Total length         72.5655 bohr


     total cpu time spent up to now is      264.2 secs

     total energy              =  -10980.25487704 Ry
     estimated scf accuracy    <       0.00720046 Ry

     iteration # 16     ecut=    90.00 Ry     beta= 0.70
     Davidson diagonalization with overlap
     ethr =  1.27E-07,  avg # of iterations = 62.0

     negative rho (up, down):  2.027E-08 0.000E+00

     Adding external electric field

     Computed dipole along edir(3) : 
        Dipole                1.1625 Ry au,          2.9549 Debye
        Dipole field          0.0004 Ry au, 

        E field amplitude [Ha a.u.]:  1.2500E-03
        Potential amp.        0.1273 Ry
        Total length         72.5655 bohr


     total cpu time spent up to now is      305.7 secs

     total energy              =  -10980.25610598 Ry
     estimated scf accuracy    <       0.00017998 Ry

     iteration # 17     ecut=    90.00 Ry     beta= 0.70
     Davidson diagonalization with overlap
     ethr =  1.00E-08,  avg # of iterations =  3.0

     Adding external electric field

     Computed dipole along edir(3) : 
        Dipole                1.1653 Ry au,          2.9618 Debye
        Dipole field          0.0004 Ry au, 

        E field amplitude [Ha a.u.]:  1.2500E-03
        Potential amp.        0.1272 Ry
        Total length         72.5655 bohr


     total cpu time spent up to now is      313.1 secs

     total energy              =  -10980.25614541 Ry
     estimated scf accuracy    <       0.00001105 Ry

     iteration # 18     ecut=    90.00 Ry     beta= 0.70
     Davidson diagonalization with overlap
     ethr =  6.14E-10,  avg # of iterations =  5.0

     Adding external electric field

     Computed dipole along edir(3) : 
        Dipole                1.1588 Ry au,          2.9454 Debye
        Dipole field          0.0004 Ry au, 

        E field amplitude [Ha a.u.]:  1.2500E-03
        Potential amp.        0.1275 Ry
        Total length         72.5655 bohr


     total cpu time spent up to now is      323.0 secs

     total energy              =  -10980.25614834 Ry
     estimated scf accuracy    <       0.00000742 Ry

     iteration # 19     ecut=    90.00 Ry     beta= 0.70
     Davidson diagonalization with overlap
     ethr =  4.12E-10,  avg # of iterations =  4.0

     Adding external electric field

     Computed dipole along edir(3) : 
        Dipole                1.1570 Ry au,          2.9407 Debye
        Dipole field          0.0004 Ry au, 

        E field amplitude [Ha a.u.]:  1.2500E-03
        Potential amp.        0.1276 Ry
        Total length         72.5655 bohr


     total cpu time spent up to now is      330.6 secs

     total energy              =  -10980.25614918 Ry
     estimated scf accuracy    <       0.00000134 Ry

     iteration # 20     ecut=    90.00 Ry     beta= 0.70
     Davidson diagonalization with overlap
     ethr =  7.45E-11,  avg # of iterations =  4.0

     Adding external electric field

     Computed dipole along edir(3) : 
        Dipole                1.1575 Ry au,          2.9420 Debye
        Dipole field          0.0004 Ry au, 

        E field amplitude [Ha a.u.]:  1.2500E-03
        Potential amp.        0.1275 Ry
        Total length         72.5655 bohr


     total cpu time spent up to now is      338.3 secs

     total energy              =  -10980.25614939 Ry
     estimated scf accuracy    <       0.00000020 Ry

     iteration # 21     ecut=    90.00 Ry     beta= 0.70
     Davidson diagonalization with overlap
     ethr =  1.09E-11,  avg # of iterations =  6.0

     Adding external electric field

     Computed dipole along edir(3) : 
        Dipole                1.1574 Ry au,          2.9418 Debye
        Dipole field          0.0004 Ry au, 

        E field amplitude [Ha a.u.]:  1.2500E-03
        Potential amp.        0.1275 Ry
        Total length         72.5655 bohr


     total cpu time spent up to now is      348.2 secs

     total energy              =  -10980.25614945 Ry
     estimated scf accuracy    <       0.00000006 Ry

     iteration # 22     ecut=    90.00 Ry     beta= 0.70
     Davidson diagonalization with overlap
     ethr =  3.44E-12,  avg # of iterations =  5.0

     Adding external electric field

     Computed dipole along edir(3) : 
        Dipole                1.1578 Ry au,          2.9427 Debye
        Dipole field          0.0004 Ry au, 

        E field amplitude [Ha a.u.]:  1.2500E-03
        Potential amp.        0.1275 Ry
        Total length         72.5655 bohr


     total cpu time spent up to now is      356.0 secs

     total energy              =  -10980.25614946 Ry
     estimated scf accuracy    <       0.00000001 Ry

     iteration # 23     ecut=    90.00 Ry     beta= 0.70
     Davidson diagonalization with overlap
     ethr =  5.94E-13,  avg # of iterations =  5.0

     Adding external electric field

     Computed dipole along edir(3) : 
        Dipole                1.1578 Ry au,          2.9427 Debye
        Dipole field          0.0004 Ry au, 

        E field amplitude [Ha a.u.]:  1.2500E-03
        Potential amp.        0.1275 Ry
        Total length         72.5655 bohr


     total cpu time spent up to now is      365.0 secs

     total energy              =  -10980.25614946 Ry
     estimated scf accuracy    <          3.4E-09 Ry

     iteration # 24     ecut=    90.00 Ry     beta= 0.70
     Davidson diagonalization with overlap
     ethr =  1.89E-13,  avg # of iterations =  4.0

     Adding external electric field

     Computed dipole along edir(3) : 
        Dipole                1.1576 Ry au,          2.9423 Debye
        Dipole field          0.0004 Ry au, 

        E field amplitude [Ha a.u.]:  1.2500E-03
        Potential amp.        0.1275 Ry
        Total length         72.5655 bohr


     total cpu time spent up to now is      372.6 secs

     End of self-consistent calculation

          k = 0.0000 0.0000 0.0000 (282573 PWs)   bands (ev):

   -44.8341 -44.6848 -44.5833 -44.5747 -44.5736 -44.5624 -44.4843 -44.4795
   -44.4705 -44.4704 -44.4671 -44.4070 -44.3873 -44.3870 -44.3794 -44.3769
   -44.3565 -44.3142 -44.3001 -44.2835 -44.2649 -44.2430 -43.7967 -43.6235
   -41.3964 -41.0500 -40.9630 -40.9500 -40.8744 -40.8736 -40.8660 -40.8624
   -40.8607 -40.8534 -40.8333 -40.8226 -40.8188 -40.8101 -40.7972 -40.7904
   -40.7744 -40.7616 -40.7373 -40.7356 -40.7343 -40.7324 -40.7215 -40.7161
   -40.7157 -40.7031 -40.6908 -40.6837 -40.6830 -40.6781 -40.6694 -40.6670
   -40.6006 -40.5987 -40.5956 -40.5638 -40.5574 -40.5569 -40.5429 -40.5367
   -40.5352 -40.5312 -40.5258 -40.5238 -40.5131 -40.5103 -40.5040 -40.4957
   -40.4929 -40.4868 -40.4847 -40.4805 -40.4730 -40.4674 -40.4665 -40.4589
   -40.4491 -40.4325 -40.4131 -40.4035 -40.4020 -40.3610 -40.3362 -40.3303
   -40.3102 -40.2792 -40.2516 -40.2484 -40.2187 -40.2004 -40.1519 -40.0880
   -40.0641 -39.9704 -39.8743 -39.7316 -39.7044 -39.6206 -39.6042 -39.5764
   -39.5282 -39.4726 -39.4562 -39.2612 -28.0052 -27.6645 -27.6281 -27.5150
   -27.4375 -27.4325 -27.3889 -27.3840 -27.3649 -27.3439 -27.3307 -27.3299
   -27.3090 -27.3054 -27.2789 -27.2782 -27.2479 -27.2474 -27.2452 -27.2403
   -27.2342 -27.1927 -27.1714 -27.1548 -27.1397 -27.1389 -27.1214 -27.1080
   -27.1057 -27.0832 -27.0688 -27.0496 -27.0104 -26.9849 -26.9117 -26.7666
   -23.1007 -23.0266 -22.9887 -22.9586 -22.9238 -22.8814 -22.8651 -22.8627
   -22.8512 -22.8495 -22.8383 -22.8336 -22.8294 -22.8249 -22.8028 -22.8002
   -22.7951 -22.7921 -22.7679 -22.7555 -22.7548 -22.7547 -22.7535 -22.7406
   -22.7314 -22.7272 -22.7266 -22.7223 -22.7099 -22.7071 -22.6974 -22.6956
   -22.6914 -22.6720 -22.6703 -22.6661 -22.6645 -22.6624 -22.6622 -22.6457
   -22.6444 -22.6422 -22.6374 -22.6356 -22.6143 -22.6107 -22.6046 -22.6035
   -22.6017 -22.6006 -22.5952 -22.5832 -22.5811 -22.5781 -22.5682 -22.5505
   -22.5499 -22.5484 -22.5428 -22.5348 -22.5286 -22.5251 -22.5235 -22.5110
   -22.4891 -22.4877 -22.1276 -22.0561 -22.0155 -21.9189 -21.9101 -21.8247
   -14.7523 -14.6603 -14.4062 -14.3301 -14.3145 -14.2630 -14.2416 -14.2129
   -14.1732 -14.1609 -14.1239 -14.1120 -14.0718 -14.0477 -14.0310 -14.0136
   -14.0098 -13.9919 -13.9584 -13.9472 -13.9282 -13.9133 -13.8991 -13.8829
   -13.8752 -13.8571 -13.8454 -13.8238 -13.8145 -13.8051 -13.7912 -13.7740
   -13.7514 -13.7465 -13.7359 -13.7317 -13.7183 -13.7031 -13.6904 -13.6751
   -13.6687 -13.6570 -13.6472 -13.6418 -13.6182 -13.6088 -13.5974 -13.5906
   -13.5793 -13.5699 -13.5598 -13.5541 -13.5253 -13.5202 -13.5167 -13.5014
   -13.5003 -13.4887 -13.4791 -13.4687 -13.4601 -13.4504 -13.4397 -13.4297
   -13.4069 -13.4058 -13.3910 -13.3893 -13.3773 -13.3711 -13.3606 -13.3477
   -13.3324 -13.3296 -13.3196 -13.3119 -13.2996 -13.2873 -13.2778 -13.2713
   -13.2427 -13.2301 -13.2242 -13.2034 -13.2008 -13.1928 -13.1759 -13.1756
   -13.1659 -13.1543 -13.1422 -13.1339 -13.1201 -13.1150 -13.1103 -13.1017
   -13.0835 -13.0772 -13.0727 -13.0693 -13.0584 -13.0471 -13.0272 -13.0228
   -13.0076 -13.0039 -12.9896 -12.9793 -12.9718 -12.9636 -12.9561 -12.9490
   -12.9402 -12.9348 -12.9210 -12.8963 -12.8891 -12.8760 -12.8657 -12.8554
   -12.8456 -12.8226 -12.7993 -12.7946 -12.7920 -12.7794 -12.7609 -12.7544
   -12.7462 -12.7347 -12.7036 -12.6950 -12.6711 -12.6492 -12.6330 -12.6001
   -12.5826 -12.5699 -12.5171 -12.4909 -12.2803 -12.1872 -11.5488 -11.4048
   -11.2731 -11.2318 -11.1746 -10.9920 -10.9741 -10.9447 -10.9265 -10.9166
   -10.9050 -10.8846 -10.8710 -10.8626 -10.8427 -10.8322 -10.8272 -10.8215
   -10.8129 -10.7931 -10.7866 -10.7813 -10.7702 -10.7665 -10.7583 -10.7536
   -10.7453 -10.7336 -10.7185 -10.7145 -10.7117 -10.7060 -10.7032 -10.6855
   -10.6751 -10.6610 -10.6556 -10.6526 -10.6446 -10.6348 -10.6197 -10.6098
   -10.6056 -10.5915 -10.5846 -10.5657 -10.5554 -10.5430 -10.5330 -10.5227
   -10.5041 -10.4976 -10.4902 -10.4786 -10.4699 -10.4549 -10.4503 -10.4423
   -10.4290 -10.4166 -10.4078 -10.4057 -10.3978 -10.3757 -10.3660 -10.3638
   -10.3425 -10.3226 -10.3113 -10.3003 -10.2994 -10.2888 -10.2627 -10.2558
   -10.2417 -10.2218 -10.2138 -10.2007 -10.1918 -10.1878 -10.1794 -10.1652
   -10.1628 -10.1575 -10.1393 -10.1339 -10.1289 -10.1195 -10.0761 -10.0738
   -10.0626 -10.0444 -10.0306 -10.0185 -10.0134  -9.9801  -9.9535  -9.9394
    -9.9215  -9.9112  -9.9084  -9.8837  -9.8571  -9.8450  -9.8190  -9.7791
    -9.7338  -9.6587  -9.5508  -9.5301  -0.9904  -0.8452  -0.8152  -0.7970
    -0.7558  -0.7299  -0.7203  -0.7165  -0.6781  -0.6665  -0.6507  -0.6402
    -0.6230  -0.6074  -0.6005  -0.5843  -0.5527  -0.5393  -0.5286  -0.5148
    -0.5056  -0.4962  -0.4838  -0.4761  -0.4692  -0.4460  -0.4347  -0.4120
    -0.4060  -0.3882  -0.3699  -0.3502  -0.3323  -0.3220  -0.3199  -0.3118
    -0.2949  -0.2921  -0.2798  -0.2705  -0.2679  -0.2466  -0.2401  -0.2283
    -0.2176  -0.2089  -0.2014  -0.1911  -0.1889  -0.1752  -0.1689  -0.1641
    -0.1501  -0.1481  -0.1402  -0.1246  -0.1210  -0.1135  -0.1074  -0.1009
    -0.0901  -0.0856  -0.0822  -0.0775  -0.0635  -0.0577  -0.0522  -0.0405
    -0.0361  -0.0276  -0.0251  -0.0164  -0.0022   0.0012   0.0065   0.0128
     0.0242   0.0347   0.0361   0.0417   0.0495   0.0524   0.0703   0.0738
     0.0854   0.0884   0.0940   0.0986   0.1011   0.1139   0.1150   0.1197
     0.1246   0.1311   0.1480   0.1506   0.1597   0.1611   0.1650   0.1681
     0.1827   0.1927   0.1953   0.2080   0.2144   0.2196   0.2280   0.2362
     0.2383   0.2423   0.2520   0.2546   0.2595   0.2652   0.2690   0.2867
     0.2914   0.2917   0.2989   0.3063   0.3148   0.3198   0.3207   0.3289
     0.3352   0.3448   0.3527   0.3582   0.3652   0.3666   0.3765   0.3770
     0.3870   0.3916   0.4018   0.4118   0.4128   0.4248   0.4334   0.4370
     0.4441   0.4497   0.4611   0.4722   0.4749   0.4842   0.4908   0.4974
     0.5045   0.5106   0.5172   0.5251   0.5296   0.5381   0.5453   0.5481
     0.5546   0.5687   0.5761   0.5835   0.5993   0.6042   0.6118   0.6163
     0.6218   0.6317   0.6365   0.6463   0.6522   0.6681   0.6754   0.6912
     0.6959   0.7034   0.7128   0.7238   0.7364   0.7453   0.7500   0.7559
     0.7761   0.7930   0.7943   0.7996   0.8073   0.8124   0.8186   0.8337
     0.8474   0.8534   0.8605   0.8688   0.8763   0.8807   0.8867   0.9011
     0.9108   0.9212   0.9227   0.9297   0.9446   0.9475   0.9614   0.9619
     0.9777   0.9797   0.9887   0.9983   1.0056   1.0132   1.0161   1.0280
     1.0380   1.0447   1.0538   1.0605   1.0716   1.0800   1.0872   1.0991
     1.1224   1.1334   1.1361   1.1392   1.1459   1.1590   1.1651   1.1679
     1.1765   1.1842   1.1904   1.2035   1.2070   1.2175   1.2248   1.2306
     1.2412   1.2557   1.2634   1.2667   1.2716   1.2846   1.2889   1.2945
     1.3006   1.3119   1.3229   1.3300   1.3404   1.3446   1.3483   1.3546
     1.3661   1.3808   1.3843   1.3904   1.3957   1.4023   1.4057   1.4229
     1.4256   1.4311   1.4374   1.4416   1.4462   1.4556   1.4667   1.4705
     1.4805   1.4865   1.4893   1.5033   1.5075   1.5165   1.5382   1.5386
     1.5517   1.5596   1.5619   1.5636   1.5685   1.5770   1.5816   1.5926
     1.5959   1.6041   1.6119   1.6243   1.6286   1.6334   1.6363   1.6481
     1.6520   1.6556   1.6594   1.6662   1.6752   1.6824   1.6946   1.6955
     1.7065   1.7149   1.7174   1.7258   1.7313   1.7394   1.7491   1.7527
     1.7619   1.7657   1.7673   1.7770   1.7839   1.7912   1.7921   1.7987
     1.8039   1.8126   1.8201   1.8234   1.8292   1.8315   1.8385   1.8406
     1.8485   1.8580   1.8642   1.8724   1.8818   1.8858   1.8922   1.8940
     1.9045   1.9056   1.9150   1.9221   1.9284   1.9406   1.9421   1.9433
     1.9521   1.9598   1.9612   1.9643   1.9678   1.9735   1.9819   1.9889
     1.9953   2.0003   2.0021   2.0138   2.0199   2.0230   2.0261   2.0276
     2.0369   2.0469   2.0506   2.0523   2.0573   2.0693   2.0716   2.0815
     2.0913   2.0937   2.0990   2.1032   2.1047   2.1112   2.1199   2.1258
     2.1352   2.1377   2.1472   2.1513   2.1574   2.1607   2.1703   2.1807
     2.1881   2.1950   2.1968   2.2093   2.2167   2.2192   2.2263   2.2308
     2.2323   2.2430   2.2575   2.2632   2.2668   2.2725   2.2835   2.2900
     2.2906   2.2982   2.3095   2.3181   2.3189   2.3314   2.3349   2.3502
     2.3536   2.3582   2.3623   2.3687   2.3696   2.3893   2.3983   2.4083
     2.4277   2.4343   2.4433   2.4514   2.4609   2.5036   2.5105   2.5206
     2.5365   2.5473   2.5518   2.5866   2.6322   2.6764   2.7437   2.8238
     2.8917   2.9476   2.9608   3.1412   5.2929   6.0119   6.0410   6.0538
     6.3721   6.4986   6.5392   6.5605   6.6190   6.6749   6.6917   6.7249
     6.7507   6.7589   6.7652   6.7838   6.7944   6.8069   6.8103   6.8261
     6.8295   6.8491   6.8635   6.8719   6.8731   6.8833   6.8989   6.9011
     6.9028   6.9071   6.9156   6.9289   6.9305   6.9414   6.9435   6.9488
     6.9590   6.9652   6.9677   6.9737   6.9840   6.9943   6.9994   7.0038
     7.0118   7.0150   7.0231   7.0255   7.0290   7.0337   7.0372   7.0407
     7.0528   7.0663   7.0732   7.0792   7.0845   7.0917   7.0981   7.1032
     7.1055   7.1114   7.1163   7.1319   7.1364   7.1443   7.1475   7.1509
     7.1556   7.1683   7.1724   7.1803   7.1845   7.1881   7.1915   7.2003
     7.2072   7.2089   7.2117   7.2184   7.2233   7.2248   7.2270   7.2342
     7.2397   7.2425   7.2459   7.2532   7.2574   7.2608   7.2611   7.2644
     7.2673   7.2685   7.2761   7.2805   7.2849   7.2888   7.2939   7.2997
     7.3042   7.3064   7.3077   7.3107   7.3131   7.3141   7.3222   7.3248
     7.3296   7.3337   7.3407   7.3447   7.3476   7.3503   7.3521   7.3545
     7.3599   7.3618   7.3653   7.3679   7.3717   7.3770   7.3809   7.3819
     7.3852   7.3908   7.3949   7.3960   7.3989   7.4025   7.4057   7.4062
     7.4098   7.4132   7.4183   7.4201   7.4239   7.4265   7.4296   7.4320
     7.4336   7.4352   7.4398   7.4438   7.4448   7.4478   7.4512   7.4556
     7.4572   7.4575   7.4603   7.4660   7.4690   7.4711   7.4755   7.4774
     7.4785   7.4802   7.4831   7.4863   7.4935   7.4939   7.4955   7.4973
     7.4987   7.5036   7.5062   7.5083   7.5101   7.5134   7.5165   7.5228
     7.5268   7.5282   7.5322   7.5331   7.5414   7.5473   7.5513   7.5537

     the Fermi energy is     4.2802 ev

!    total energy              =  -10980.25614946 Ry
     estimated scf accuracy    <          6.2E-10 Ry
     smearing contrib. (-TS)   =       0.00000000 Ry
     internal energy E=F+TS    =  -10980.25614946 Ry

     The total energy is F=E-TS. E is the sum of the following terms:
     one-electron contribution = -262689.09079719 Ry
     hartree contribution      =  131920.13354719 Ry
     xc contribution           =   -2580.51459797 Ry
     ewald contribution        =  122369.21816276 Ry
     electric field correction =      -0.00246426 Ry

     convergence has been achieved in  24 iterations

     Forces acting on atoms (cartesian axes, Ry/au):

     atom    1 type  1   force =    -0.00087017   -0.00037189    0.00081226
     atom    2 type  1   force =     0.00022129   -0.00082232    0.00063520
     atom    3 type  1   force =     0.00101312   -0.00022417    0.00064961
     atom    4 type  1   force =     0.00041463    0.00051356    0.00075939
     atom    5 type  1   force =    -0.00064654    0.00027224    0.00046444
     atom    6 type  1   force =    -0.00053668   -0.00006038    0.00050047
     atom    7 type  1   force =     0.00051939   -0.00015704    0.00048188
     atom    8 type  1   force =    -0.00071118   -0.00022396    0.00106575
     atom    9 type  1   force =     0.00049756    0.00030955    0.00077990
     atom   10 type  1   force =    -0.00030129   -0.00003835    0.00120842
     atom   11 type  1   force =     0.00038946    0.00003215    0.00024406
     atom   12 type  1   force =    -0.00010798   -0.00066136    0.00071778
     atom   13 type  1   force =    -0.00007566    0.00024664    0.00084688
     atom   14 type  1   force =    -0.00029159    0.00045018    0.00118702
     atom   15 type  1   force =     0.00045199   -0.00047841    0.00081420
     atom   16 type  1   force =     0.00037136    0.00033572    0.00115670
     atom   17 type  1   force =    -0.00080034    0.00002839    0.00128843
     atom   18 type  1   force =     0.00017974   -0.00008501    0.00075335
     atom   19 type  1   force =     0.00021845   -0.00044032    0.00051205
     atom   20 type  1   force =     0.00014243    0.00040768    0.00052042
     atom   21 type  1   force =     0.00016152   -0.00052574    0.00043580
     atom   22 type  1   force =     0.00010388    0.00064928    0.00125283
     atom   23 type  1   force =    -0.00027156   -0.00062517    0.00112784
     atom   24 type  1   force =    -0.00016541    0.00027017    0.00154213
     atom   25 type  1   force =     0.00006397   -0.00007683    0.00067802
     atom   26 type  1   force =     0.00057327    0.00037040    0.00055281
     atom   27 type  1   force =    -0.00061496    0.00028983    0.00114073
     atom   28 type  1   force =    -0.00054769   -0.00044497    0.00077929
     atom   29 type  1   force =    -0.00006428   -0.00065155    0.00111871
     atom   30 type  1   force =     0.00047400   -0.00034158    0.00066867
     atom   31 type  1   force =    -0.00000639    0.00070908    0.00150490
     atom   32 type  1   force =    -0.00011865   -0.00011462    0.00086179
     atom   33 type  1   force =     0.00030790   -0.00014323    0.00031841
     atom   34 type  1   force =    -0.00023084   -0.00054635    0.00067381
     atom   35 type  1   force =     0.00034566    0.00017845    0.00037570
     atom   36 type  1   force =    -0.00070506   -0.00016418    0.00102709
     atom   37 type  1   force =     0.00054466    0.00041629    0.00110376
     atom   38 type  1   force =    -0.00040106   -0.00000016    0.00162496
     atom   39 type  1   force =     0.00010289   -0.00001872    0.00081303
     atom   40 type  1   force =    -0.00004496   -0.00083397    0.00066189
     atom   41 type  1   force =     0.00026182    0.00076650    0.00085536
     atom   42 type  1   force =    -0.00038190    0.00054836    0.00123245
     atom   43 type  1   force =     0.00054142   -0.00039807    0.00064811
     atom   44 type  1   force =     0.00056344    0.00032796    0.00102602
     atom   45 type  1   force =    -0.00086711   -0.00001320    0.00125299
     atom   46 type  1   force =     0.00003975    0.00008258    0.00093693
     atom   47 type  1   force =     0.00023810   -0.00043993    0.00033405
     atom   48 type  1   force =     0.00025324    0.00034951    0.00073568
     atom   49 type  1   force =     0.00013246   -0.00061737    0.00059930
     atom   50 type  1   force =     0.00013801    0.00065675    0.00130280
     atom   51 type  1   force =    -0.00042261   -0.00070779    0.00120383
     atom   52 type  1   force =    -0.00021148    0.00032562    0.00152441
     atom   53 type  1   force =     0.00001682   -0.00011361    0.00069952
     atom   54 type  1   force =     0.00057957    0.00051524    0.00020656
     atom   55 type  1   force =    -0.00052048    0.00023723    0.00124010
     atom   56 type  1   force =    -0.00045360   -0.00044965    0.00071914
     atom   57 type  1   force =    -0.00012180   -0.00053564    0.00112850
     atom   58 type  1   force =     0.00062335   -0.00034389    0.00061024
     atom   59 type  1   force =     0.00000490    0.00065257    0.00141951
     atom   60 type  1   force =    -0.00010933   -0.00005918    0.00084077
     atom   61 type  1   force =     0.00028135   -0.00008068    0.00055354
     atom   62 type  1   force =    -0.00027802   -0.00058788    0.00053507
     atom   63 type  1   force =     0.00050501    0.00022197    0.00041585
     atom   64 type  1   force =    -0.00064099   -0.00031716    0.00085428
     atom   65 type  1   force =     0.00031646    0.00063049    0.00103554
     atom   66 type  1   force =    -0.00058587    0.00000989    0.00167131
     atom   67 type  1   force =     0.00013560   -0.00027999    0.00098018
     atom   68 type  1   force =     0.00015367   -0.00090219    0.00078128
     atom   69 type  1   force =     0.00020432    0.00059197    0.00088628
     atom   70 type  1   force =    -0.00042232    0.00043005    0.00128240
     atom   71 type  1   force =    -0.00016420    0.00004568    0.00106442
     atom   72 type  1   force =     0.00090993    0.00047481    0.00122269
     atom   73 type  1   force =    -0.00081666   -0.00040184    0.00150459
     atom   74 type  1   force =     0.00012989   -0.00003709    0.00075412
     atom   75 type  1   force =     0.00050683   -0.00046091    0.00027285
     atom   76 type  1   force =    -0.00017375   -0.00023819    0.00077840
     atom   77 type  1   force =     0.00061957   -0.00020729    0.00037123
     atom   78 type  1   force =    -0.00076422    0.00077232    0.00053841
     atom   79 type  1   force =     0.00044969   -0.00050180    0.00083661
     atom   80 type  1   force =     0.00058473   -0.00024562    0.00144738
     atom   81 type  1   force =     0.00006217    0.00018388    0.00101745
     atom   82 type  1   force =     0.00037605    0.00084003    0.00137058
     atom   83 type  1   force =    -0.00024870   -0.00051815    0.00173958
     atom   84 type  1   force =    -0.00084676   -0.00099426    0.00159638
     atom   85 type  2   force =     0.00176148    0.00171102   -0.00365286
     atom   86 type  2   force =     0.00254216   -0.00241638    0.00106609
     atom   87 type  2   force =    -0.00275061    0.00144400   -0.00176079
     atom   88 type  2   force =    -0.00009250   -0.00205432    0.00427047
     atom   89 type  2   force =     0.00042993    0.00216845    0.00508617
     atom   90 type  2   force =    -0.00109378    0.00014440    0.00323163
     atom   91 type  2   force =     0.00040109   -0.00138571    0.00214174
     atom   92 type  2   force =    -0.00044771   -0.00074075    0.00483695
     atom   93 type  2   force =     0.00020048    0.00028653    0.00372152
     atom   94 type  2   force =    -0.00000187    0.00033143    0.00439185
     atom   95 type  2   force =    -0.00043092    0.00022602    0.00294764
     atom   96 type  2   force =     0.00062155    0.00069169    0.00406865
     atom   97 type  2   force =     0.00039494    0.00039325    0.00296537
     atom   98 type  2   force =    -0.00007811    0.00046103    0.00322413
     atom   99 type  2   force =     0.00031179   -0.00074971    0.00262166
     atom  100 type  2   force =     0.00005344   -0.00026389    0.00381922
     atom  101 type  2   force =    -0.00022256    0.00061466    0.00308850
     atom  102 type  2   force =    -0.00029222   -0.00041873    0.00394076
     atom  103 type  2   force =    -0.00078613   -0.00084832    0.00301801
     atom  104 type  2   force =    -0.00017887   -0.00028980    0.00334875
     atom  105 type  2   force =     0.00073921   -0.00014989    0.00249736
     atom  106 type  2   force =    -0.00015205    0.00031763    0.00416219
     atom  107 type  2   force =    -0.00053399   -0.00016406    0.00349122
     atom  108 type  2   force =     0.00033582    0.00075249    0.00374734
     atom  109 type  2   force =     0.00042918    0.00034616    0.00346861
     atom  110 type  2   force =     0.00017435    0.00031409    0.00366231
     atom  111 type  2   force =     0.00025800   -0.00054269    0.00229691
     atom  112 type  2   force =    -0.00001892   -0.00028536    0.00244072
     atom  113 type  2   force =     0.00051026    0.00052348    0.00250143
     atom  114 type  2   force =     0.00007773   -0.00082521    0.00574382
     atom  115 type  2   force =    -0.00084997   -0.00017020    0.00344070
     atom  116 type  2   force =    -0.00072202   -0.00080757    0.00408472
     atom  117 type  2   force =     0.00060262   -0.00027031    0.00449626
     atom  118 type  2   force =    -0.00079872   -0.00337406    0.00653127
     atom  119 type  2   force =    -0.00131487    0.00102193    0.00484397
     atom  120 type  2   force =    -0.00049202    0.00069041    0.01004304
     atom  121 type  3   force =     0.01133832   -0.00046689   -0.00516297
     atom  122 type  3   force =    -0.00565920    0.00490951   -0.00542936
     atom  123 type  3   force =     0.00940071   -0.00021859    0.00226836
     atom  124 type  3   force =    -0.00932535   -0.00349590    0.00197265
     atom  125 type  3   force =     0.00017798    0.00199950    0.00376021
     atom  126 type  3   force =    -0.00019305   -0.00294823    0.00426601
     atom  127 type  3   force =     0.00033898    0.00064128    0.00356326
     atom  128 type  3   force =    -0.00131968    0.00271829    0.00344139
     atom  129 type  3   force =    -0.00034765   -0.00074300    0.00299218
     atom  130 type  3   force =    -0.00029503    0.00066400    0.00354199
     atom  131 type  3   force =    -0.00061612    0.00049609    0.00474217
     atom  132 type  3   force =    -0.00091967   -0.00040122    0.00531325
     atom  133 type  3   force =     0.00054646    0.00047432    0.00388230
     atom  134 type  3   force =    -0.00032495   -0.00128285    0.00406797
     atom  135 type  3   force =     0.00069597   -0.00022817    0.00335308
     atom  136 type  3   force =    -0.00076292   -0.00027585    0.00377358
     atom  137 type  3   force =     0.00200456   -0.00025213    0.00444131
     atom  138 type  3   force =     0.00015980   -0.00002602    0.00392725
     atom  139 type  3   force =    -0.00066160    0.00086303    0.00347271
     atom  140 type  3   force =    -0.00047203    0.00015880    0.00447156
     atom  141 type  3   force =    -0.00769059    0.00916621    0.01922155
     atom  142 type  3   force =     0.00407632   -0.00155559    0.02078125
     atom  143 type  3   force =     0.00135210    0.00745913    0.00759068
     atom  144 type  3   force =    -0.00201635   -0.00439108    0.00706574
     atom  145 type  4   force =     0.00286269   -0.00221022    0.00329858
     atom  146 type  4   force =    -0.00455025    0.00018558    0.00143023
     atom  147 type  4   force =     0.00748530   -0.00144450    0.00338351
     atom  148 type  4   force =    -0.00800695    0.00410119    0.00459897
     atom  149 type  4   force =     0.00257034   -0.00499177    0.00132765
     atom  150 type  4   force =    -0.00289716    0.00939529    0.00359483
     atom  151 type  4   force =    -0.01146227    0.01080728    0.00276623
     atom  152 type  4   force =     0.00904734   -0.01047905    0.00090316
     atom  153 type  4   force =    -0.00997970   -0.01271064   -0.00003244
     atom  154 type  4   force =     0.00514469    0.00548018   -0.00124958
     atom  155 type  4   force =     0.00236035    0.00000092    0.00233783
     atom  156 type  4   force =    -0.00219280   -0.00026298    0.00191837
     atom  157 type  4   force =     0.00899885    0.00661736    0.00156736
     atom  158 type  4   force =    -0.00965008   -0.00477391   -0.00387566
     atom  159 type  4   force =    -0.00418065   -0.00258361   -0.00190292
     atom  160 type  4   force =     0.00415012    0.00193071   -0.00301381
     atom  161 type  4   force =     0.00329344   -0.00004324    0.00038170
     atom  162 type  4   force =    -0.00298907    0.00012991   -0.00148029
     atom  163 type  4   force =     0.00169830   -0.00263908   -0.00693643
     atom  164 type  4   force =    -0.00096526    0.00238681   -0.00588887
     atom  165 type  4   force =     0.00464827   -0.00006735   -0.00441279
     atom  166 type  4   force =    -0.00359114    0.00099088   -0.00463316
     atom  167 type  4   force =     0.00307559   -0.00099639   -0.00816494
     atom  168 type  4   force =    -0.00101632    0.00117383   -0.00771441
     atom  169 type  4   force =     0.00242507   -0.00102617    0.00369638
     atom  170 type  4   force =    -0.00267836    0.00204028    0.00480228
     atom  171 type  4   force =     0.00147687   -0.00441450    0.00396291
     atom  172 type  4   force =    -0.00148647    0.00480975    0.00282748
     atom  173 type  4   force =     0.00542922   -0.00019553    0.00187928
     atom  174 type  4   force =    -0.00619251    0.00059094    0.00256387
     atom  175 type  4   force =     0.00523392   -0.00320804    0.00067964
     atom  176 type  4   force =    -0.00507539    0.00355971   -0.00050607
     atom  177 type  4   force =     0.00207010    0.00533459    0.00018275
     atom  178 type  4   force =    -0.00287434   -0.00739518   -0.00000496
     atom  179 type  4   force =    -0.00142352   -0.00429817   -0.00002140
     atom  180 type  4   force =     0.00140783    0.00559442    0.00054033
     atom  181 type  4   force =    -0.00271648   -0.00778963   -0.00318100
     atom  182 type  4   force =     0.00330583    0.00779093   -0.00415239
     atom  183 type  4   force =     0.00225854    0.00609022   -0.00462413
     atom  184 type  4   force =    -0.00247289   -0.00662476   -0.00415558
     atom  185 type  4   force =    -0.00548913    0.00354830   -0.00446064
     atom  186 type  4   force =     0.00673205   -0.00530269   -0.00523566
     atom  187 type  4   force =     0.00532943   -0.00087455   -0.00638429
     atom  188 type  4   force =    -0.00565414    0.00045961   -0.00627755
     atom  189 type  4   force =     0.00228947   -0.00514265   -0.00628451
     atom  190 type  4   force =    -0.00124732    0.00483735   -0.00654152
     atom  191 type  4   force =     0.00291750   -0.00160594   -0.00884791
     atom  192 type  4   force =    -0.00252611    0.00085361   -0.00844961
     atom  193 type  4   force =     0.00120872   -0.00158602    0.00335495
     atom  194 type  4   force =    -0.00172799    0.00178874    0.00372398
     atom  195 type  4   force =     0.00465469   -0.00008290    0.00323292
     atom  196 type  4   force =    -0.00484833    0.00030961    0.00262862
     atom  197 type  4   force =     0.00182899   -0.00451744    0.00179637
     atom  198 type  4   force =    -0.00196906    0.00470962    0.00214361
     atom  199 type  4   force =    -0.00606485    0.00425581    0.00068547
     atom  200 type  4   force =     0.00477086   -0.00425107    0.00064259
     atom  201 type  4   force =    -0.00514721   -0.00429426   -0.00001117
     atom  202 type  4   force =     0.00487885    0.00423745    0.00013215
     atom  203 type  4   force =     0.00571983    0.00480611    0.00049840
     atom  204 type  4   force =    -0.00551411   -0.00421516    0.00006672
     atom  205 type  4   force =     0.00608282    0.00434428   -0.00319129
     atom  206 type  4   force =    -0.00569295   -0.00419070   -0.00331370
     atom  207 type  4   force =    -0.00584794   -0.00452256   -0.00416934
     atom  208 type  4   force =     0.00579165    0.00495600   -0.00391940
     atom  209 type  4   force =     0.00567627   -0.00365071   -0.00414420
     atom  210 type  4   force =    -0.00503005    0.00378140   -0.00422568
     atom  211 type  4   force =     0.00293196   -0.00578124   -0.00706314
     atom  212 type  4   force =    -0.00228525    0.00519860   -0.00568930
     atom  213 type  4   force =     0.00612181   -0.00079116   -0.00703102
     atom  214 type  4   force =    -0.00504591    0.00001769   -0.00645212
     atom  215 type  4   force =     0.00272865   -0.00223988   -0.00992775
     atom  216 type  4   force =    -0.00165957    0.00222580   -0.00871456
     atom  217 type  4   force =     0.00232083   -0.00053013    0.00379855
     atom  218 type  4   force =    -0.00262183    0.00171139    0.00472744
     atom  219 type  4   force =     0.00135347   -0.00393204    0.00257853
     atom  220 type  4   force =    -0.00227288    0.00470940    0.00314046
     atom  221 type  4   force =     0.00480550   -0.00005043    0.00165828
     atom  222 type  4   force =    -0.00563470    0.00068254    0.00254725
     atom  223 type  4   force =     0.00500131   -0.00325153    0.00035407
     atom  224 type  4   force =    -0.00537478    0.00370939    0.00002781
     atom  225 type  4   force =     0.00300332    0.00674384   -0.00004385
     atom  226 type  4   force =    -0.00267483   -0.00668827   -0.00004826
     atom  227 type  4   force =    -0.00223984   -0.00602276    0.00017302
     atom  228 type  4   force =     0.00224066    0.00647877   -0.00002511
     atom  229 type  4   force =    -0.00237833   -0.00711035   -0.00341499
     atom  230 type  4   force =     0.00275028    0.00763473   -0.00387885
     atom  231 type  4   force =     0.00230498    0.00634311   -0.00398116
     atom  232 type  4   force =    -0.00246376   -0.00644910   -0.00384997
     atom  233 type  4   force =    -0.00590503    0.00357966   -0.00440157
     atom  234 type  4   force =     0.00604008   -0.00471084   -0.00474593
     atom  235 type  4   force =     0.00583838   -0.00074358   -0.00653325
     atom  236 type  4   force =    -0.00571768    0.00063521   -0.00594547
     atom  237 type  4   force =     0.00245064   -0.00537231   -0.00640890
     atom  238 type  4   force =    -0.00184546    0.00498551   -0.00676028
     atom  239 type  4   force =     0.00276414   -0.00151401   -0.00879186
     atom  240 type  4   force =    -0.00251368    0.00094236   -0.00831234
     atom  241 type  4   force =     0.00164834   -0.00193302    0.00406802
     atom  242 type  4   force =    -0.00218206    0.00222913    0.00446250
     atom  243 type  4   force =     0.00408286    0.00019575    0.00218497
     atom  244 type  4   force =    -0.00469127    0.00073294    0.00256400
     atom  245 type  4   force =     0.00179654   -0.00509455    0.00199348
     atom  246 type  4   force =    -0.00190829    0.00482091    0.00207730
     atom  247 type  4   force =    -0.00562757    0.00471487    0.00127191
     atom  248 type  4   force =     0.00440046   -0.00409347    0.00055893
     atom  249 type  4   force =    -0.00486307   -0.00444948    0.00009897
     atom  250 type  4   force =     0.00472471    0.00433200    0.00074604
     atom  251 type  4   force =     0.00559619    0.00479761    0.00028578
     atom  252 type  4   force =    -0.00602552   -0.00471450   -0.00030306
     atom  253 type  4   force =     0.00651907    0.00397000   -0.00359798
     atom  254 type  4   force =    -0.00576576   -0.00401323   -0.00342518
     atom  255 type  4   force =    -0.00625502   -0.00465732   -0.00421281
     atom  256 type  4   force =     0.00543638    0.00367480   -0.00472434
     atom  257 type  4   force =     0.00606788   -0.00349473   -0.00410666
     atom  258 type  4   force =    -0.00542073    0.00403371   -0.00490120
     atom  259 type  4   force =     0.00307672   -0.00525877   -0.00721919
     atom  260 type  4   force =    -0.00209360    0.00466231   -0.00630281
     atom  261 type  4   force =     0.00609857   -0.00041613   -0.00668664
     atom  262 type  4   force =    -0.00582061    0.00008168   -0.00763180
     atom  263 type  4   force =     0.00252867   -0.00179413   -0.01035605
     atom  264 type  4   force =    -0.00132784    0.00168261   -0.00802625
     atom  265 type  4   force =    -0.00040122   -0.00076849    0.00014341
     atom  266 type  4   force =     0.00027605    0.00071780   -0.00017573
     atom  267 type  4   force =     0.00130359   -0.00275875    0.00133338
     atom  268 type  4   force =    -0.00150300    0.00357774    0.00112438
     atom  269 type  4   force =     0.00173486    0.00088988    0.00041325
     atom  270 type  4   force =    -0.00288005   -0.00028404    0.00146925
     atom  271 type  4   force =     0.00306205   -0.00301533   -0.00152560
     atom  272 type  4   force =    -0.00550740    0.00368480   -0.00168894
     atom  273 type  4   force =     0.00279514    0.00798717    0.00128976
     atom  274 type  4   force =    -0.00384442   -0.00884664    0.00048198
     atom  275 type  4   force =    -0.00095728   -0.00251846   -0.00039864
     atom  276 type  4   force =     0.00225676    0.00433290   -0.00143921
     atom  277 type  4   force =    -0.00569866   -0.00764657   -0.00126526
     atom  278 type  4   force =     0.00478238    0.00708397   -0.00269998
     atom  279 type  4   force =    -0.00266277    0.00265584   -0.00298752
     atom  280 type  4   force =     0.00075004   -0.00759343   -0.00629297
     atom  281 type  4   force =    -0.00415758    0.00630182   -0.00546599
     atom  282 type  4   force =     0.00631603   -0.00695194   -0.00705073
     atom  283 type  4   force =     0.00916741    0.00125783   -0.00533321
     atom  284 type  4   force =    -0.00694470    0.00169277   -0.00496698
     atom  285 type  4   force =     0.00790274   -0.00596364   -0.01088904
     atom  286 type  4   force =    -0.00295857    0.00818287   -0.00903686
     atom  287 type  4   force =     0.01518774   -0.00641964   -0.01802480
     atom  288 type  4   force =    -0.01195614   -0.00211284   -0.01979193
     The non-local contrib.  to forces
     atom    1 type  1   force =    -0.05721514   -0.02002618   -0.08618228
     atom    2 type  1   force =    -0.01941493   -0.03324089   -0.09974576
     atom    3 type  1   force =     0.05724660   -0.02891367   -0.07663490
     atom    4 type  1   force =     0.01013647    0.02180300   -0.09957333
     atom    5 type  1   force =    -0.04010324   -0.00075848   -0.06888250
     atom    6 type  1   force =    -0.09173135   -0.00357618   -0.01386674
     atom    7 type  1   force =     0.06301788    0.00050403   -0.02181855
     atom    8 type  1   force =    -0.02137535   -0.01510930    0.05214782
     atom    9 type  1   force =     0.02774164    0.04294648    0.00909214
     atom   10 type  1   force =     0.00019730    0.06478649   -0.00045446
     atom   11 type  1   force =    -0.00500461   -0.01393245   -0.02995192
     atom   12 type  1   force =    -0.02947808   -0.03431648   -0.03922033
     atom   13 type  1   force =     0.04681064    0.00265071   -0.00637187
     atom   14 type  1   force =    -0.04971107   -0.00152391    0.02207607
     atom   15 type  1   force =     0.01076919   -0.05512398   -0.02672305
     atom   16 type  1   force =     0.02045359    0.05052029    0.03236666
     atom   17 type  1   force =    -0.04255499   -0.01962262    0.03796321
     atom   18 type  1   force =     0.00307633   -0.00790427   -0.00950791
     atom   19 type  1   force =     0.06345812   -0.00009860   -0.02062567
     atom   20 type  1   force =     0.00015942    0.05842742   -0.00198057
     atom   21 type  1   force =    -0.00514018   -0.04228415   -0.05726244
     atom   22 type  1   force =    -0.00743977    0.06556808    0.01922643
     atom   23 type  1   force =    -0.01108449   -0.05865023   -0.02793332
     atom   24 type  1   force =    -0.03902033   -0.00917403    0.03338774
     atom   25 type  1   force =    -0.00278012    0.00373160   -0.00407780
     atom   26 type  1   force =     0.05543290   -0.00390957   -0.01339066
     atom   27 type  1   force =    -0.02228311    0.05180778    0.02290946
     atom   28 type  1   force =    -0.01272228   -0.05176262   -0.03037832
     atom   29 type  1   force =    -0.04315310   -0.02741029    0.02617807
     atom   30 type  1   force =     0.04733507    0.00009969   -0.03440180
     atom   31 type  1   force =    -0.01063825    0.06466647    0.01830994
[...]
     atom   55 type  1   force =    -0.00000010   -0.00000009   -0.00000150
     atom   56 type  1   force =     0.00000041   -0.00000056   -0.00000190
     atom   57 type  1   force =     0.00000023    0.00000028   -0.00000190
     atom   58 type  1   force =     0.00000023    0.00000038   -0.00000165
     atom   59 type  1   force =    -0.00000019   -0.00000018   -0.00000147
     atom   60 type  1   force =    -0.00000020   -0.00000032   -0.00000126
     atom   61 type  1   force =     0.00000011    0.00000021   -0.00000098
     atom   62 type  1   force =     0.00000063    0.00000007   -0.00000143
     atom   63 type  1   force =    -0.00000070   -0.00000007   -0.00000184
     atom   64 type  1   force =    -0.00000003    0.00000011   -0.00000189
     atom   65 type  1   force =     0.00000035    0.00000001   -0.00000120
     atom   66 type  1   force =    -0.00000005    0.00000017   -0.00000184
     atom   67 type  1   force =     0.00000014    0.00000023   -0.00000174
     atom   68 type  1   force =     0.00000066    0.00000019   -0.00000101
     atom   69 type  1   force =    -0.00000058    0.00000002   -0.00000139
     atom   70 type  1   force =    -0.00000028   -0.00000028   -0.00000129
     atom   71 type  1   force =     0.00000038    0.00000063   -0.00000074
     atom   72 type  1   force =    -0.00000043   -0.00000038   -0.00000067
     atom   73 type  1   force =     0.00000020    0.00000037   -0.00000031
     atom   74 type  1   force =    -0.00000043   -0.00000074   -0.00000039
     atom   75 type  1   force =    -0.00000015    0.00000026   -0.00000013
     atom   76 type  1   force =     0.00000062   -0.00000080   -0.00000112
     atom   77 type  1   force =    -0.00000062    0.00000079   -0.00000056
     atom   78 type  1   force =    -0.00000021    0.00000116   -0.00000082
     atom   79 type  1   force =    -0.00000065   -0.00000159   -0.00000015
     atom   80 type  1   force =     0.00000024    0.00000018   -0.00000031
     atom   81 type  1   force =     0.00000072   -0.00000016    0.00000035
     atom   82 type  1   force =    -0.00000105    0.00000020    0.00000068
     atom   83 type  1   force =     0.00000055    0.00000228    0.00000085
     atom   84 type  1   force =     0.00000051   -0.00000003    0.00000082
     atom   85 type  2   force =    -0.00000003    0.00000212   -0.00000312
     atom   86 type  2   force =     0.00000164   -0.00000317    0.00000240
     atom   87 type  2   force =     0.00000032    0.00000173    0.00000171
     atom   88 type  2   force =    -0.00000062    0.00000350    0.00000538
     atom   89 type  2   force =    -0.00000121   -0.00000189    0.00000411
     atom   90 type  2   force =     0.00000203   -0.00000059    0.00000325
     atom   91 type  2   force =     0.00000082   -0.00000049    0.00000734
     atom   92 type  2   force =     0.00000539    0.00000086    0.00001117
     atom   93 type  2   force =    -0.00000619    0.00000031    0.00000917
     atom   94 type  2   force =    -0.00000038    0.00000082    0.00000858
     atom   95 type  2   force =     0.00000196   -0.00000149    0.00000845
     atom   96 type  2   force =     0.00000091   -0.00000014    0.00000068
     atom   97 type  2   force =    -0.00000118    0.00000040    0.00000216
     atom   98 type  2   force =    -0.00000035    0.00000139   -0.00000547
     atom   99 type  2   force =     0.00000062   -0.00000244   -0.00000397
     atom  100 type  2   force =     0.00000061   -0.00000200   -0.00000780
     atom  101 type  2   force =    -0.00000113    0.00000224   -0.00000918
     atom  102 type  2   force =     0.00000050    0.00000007   -0.00000651
     atom  103 type  2   force =    -0.00000081   -0.00000053   -0.00000959
     atom  104 type  2   force =    -0.00000186   -0.00000039   -0.00001057
     atom  105 type  2   force =     0.00000281    0.00000010   -0.00001067
     atom  106 type  2   force =     0.00000268    0.00000120   -0.00001005
     atom  107 type  2   force =    -0.00000247   -0.00000010   -0.00001040
     atom  108 type  2   force =     0.00000091    0.00000017   -0.00000563
     atom  109 type  2   force =    -0.00000033    0.00000037   -0.00000939
     atom  110 type  2   force =    -0.00000171    0.00000160   -0.00000908
     atom  111 type  2   force =     0.00000099   -0.00000217   -0.00000865
     atom  112 type  2   force =     0.00000067   -0.00000172   -0.00000522
     atom  113 type  2   force =    -0.00000160    0.00000072   -0.00000624
     atom  114 type  2   force =     0.00000119   -0.00000044   -0.00000050
     atom  115 type  2   force =    -0.00000154   -0.00000014   -0.00000460
     atom  116 type  2   force =     0.00000340    0.00000081   -0.00000620
     atom  117 type  2   force =    -0.00000187   -0.00000016   -0.00000675
     atom  118 type  2   force =    -0.00000272   -0.00000232   -0.00000031
     atom  119 type  2   force =     0.00000463   -0.00000197    0.00000280
     atom  120 type  2   force =     0.00000025   -0.00000017    0.00000930
     atom  121 type  3   force =     0.00000544    0.00000148    0.00001184
     atom  122 type  3   force =    -0.00000497    0.00000221    0.00001053
     atom  123 type  3   force =     0.00000700    0.00000111    0.00000473
     atom  124 type  3   force =    -0.00000602   -0.00000195    0.00000425
     atom  125 type  3   force =    -0.00000246   -0.00000640    0.00000576
     atom  126 type  3   force =    -0.00000070    0.00000510    0.00000647
     atom  127 type  3   force =    -0.00000056   -0.00000118    0.00001389
     atom  128 type  3   force =     0.00000233    0.00000441    0.00001466
     atom  129 type  3   force =     0.00000042    0.00000042   -0.00001126
     atom  130 type  3   force =    -0.00000114   -0.00000001   -0.00001088
     atom  131 type  3   force =     0.00000255    0.00000221   -0.00000654
     atom  132 type  3   force =    -0.00000216   -0.00000202   -0.00000836
     atom  133 type  3   force =     0.00000110    0.00000137   -0.00001244
     atom  134 type  3   force =    -0.00000421   -0.00000250   -0.00001258
     atom  135 type  3   force =     0.00000045    0.00000089   -0.00001676
     atom  136 type  3   force =     0.00000111    0.00000002   -0.00001715
     atom  137 type  3   force =     0.00000069    0.00000039   -0.00000969
     atom  138 type  3   force =    -0.00000067   -0.00000215   -0.00001149
     atom  139 type  3   force =     0.00000266    0.00000206   -0.00000897
     atom  140 type  3   force =    -0.00000164    0.00000001   -0.00000948
     atom  141 type  3   force =     0.00000323    0.00000179   -0.00000544
     atom  142 type  3   force =    -0.00000260   -0.00000449   -0.00000573
     atom  143 type  3   force =    -0.00000733    0.00001108    0.00000320
     atom  144 type  3   force =     0.00000476   -0.00000885   -0.00000137
     atom  145 type  4   force =     0.00000104   -0.00000122    0.00000113
     atom  146 type  4   force =    -0.00000201    0.00000191    0.00000111
     atom  147 type  4   force =     0.00000383   -0.00000127    0.00000423
     atom  148 type  4   force =    -0.00000317    0.00000164    0.00000574
     atom  149 type  4   force =     0.00000116   -0.00000319    0.00000227
     atom  150 type  4   force =     0.00000083    0.00000249    0.00000190
     atom  151 type  4   force =    -0.00000231    0.00000483    0.00000512
     atom  152 type  4   force =     0.00000342   -0.00000689    0.00000335
     atom  153 type  4   force =    -0.00000245   -0.00000504    0.00000255
     atom  154 type  4   force =     0.00000119    0.00000509    0.00000451
     atom  155 type  4   force =     0.00000160    0.00000040    0.00000050
     atom  156 type  4   force =    -0.00000140    0.00000124    0.00000015
     atom  157 type  4   force =     0.00000083    0.00000219    0.00000206
     atom  158 type  4   force =    -0.00000112   -0.00000183    0.00000268
     atom  159 type  4   force =    -0.00000461   -0.00000404   -0.00000056
     atom  160 type  4   force =     0.00000409    0.00000247    0.00000038
     atom  161 type  4   force =     0.00000448   -0.00000204    0.00000183
     atom  162 type  4   force =    -0.00000375    0.00000174    0.00000031
     atom  163 type  4   force =     0.00000291    0.00000089    0.00000164
     atom  164 type  4   force =    -0.00000339    0.00000196    0.00000099
     atom  165 type  4   force =     0.00000090   -0.00000183   -0.00000283
     atom  166 type  4   force =    -0.00000136   -0.00000111   -0.00000121
     atom  167 type  4   force =    -0.00000174   -0.00000155    0.00000246
     atom  168 type  4   force =     0.00000274    0.00000153    0.00000267
     atom  169 type  4   force =     0.00000105    0.00000123    0.00000668
     atom  170 type  4   force =    -0.00000154   -0.00000121    0.00000522
     atom  171 type  4   force =     0.00000059   -0.00000060    0.00000636
     atom  172 type  4   force =    -0.00000100    0.00000147    0.00000583
     atom  173 type  4   force =     0.00000234   -0.00000036    0.00000427
     atom  174 type  4   force =    -0.00000376    0.00000204    0.00000624
     atom  175 type  4   force =     0.00000063   -0.00000290    0.00000492
     atom  176 type  4   force =     0.00000084    0.00000235    0.00000491
     atom  177 type  4   force =    -0.00000013    0.00000154    0.00000484
     atom  178 type  4   force =     0.00000106   -0.00000201    0.00000432
     atom  179 type  4   force =    -0.00000125   -0.00000082    0.00000371
     atom  180 type  4   force =     0.00000086    0.00000064    0.00000450
     atom  181 type  4   force =    -0.00000171   -0.00000326    0.00000244
     atom  182 type  4   force =     0.00000070    0.00000295    0.00000238
     atom  183 type  4   force =    -0.00000078   -0.00000001    0.00000387
     atom  184 type  4   force =     0.00000064    0.00000048    0.00000450
     atom  185 type  4   force =    -0.00000004   -0.00000042    0.00000384
     atom  186 type  4   force =     0.00000038    0.00000092    0.00000434
     atom  187 type  4   force =     0.00000141    0.00000153    0.00000122
     atom  188 type  4   force =    -0.00000100   -0.00000224    0.00000102
     atom  189 type  4   force =     0.00000074   -0.00000143    0.00000331
     atom  190 type  4   force =     0.00000047    0.00000150    0.00000359
     atom  191 type  4   force =    -0.00000047   -0.00000209   -0.00000092
     atom  192 type  4   force =    -0.00000069    0.00000197   -0.00000054
     atom  193 type  4   force =     0.00000131    0.00000083    0.00000286
     atom  194 type  4   force =    -0.00000181   -0.00000036    0.00000203
     atom  195 type  4   force =     0.00000146   -0.00000034   -0.00000035
     atom  196 type  4   force =    -0.00000127   -0.00000028   -0.00000120
     atom  197 type  4   force =    -0.00000061   -0.00000129   -0.00000104
     atom  198 type  4   force =     0.00000126    0.00000116   -0.00000047
     atom  199 type  4   force =    -0.00000137    0.00000155   -0.00000262
     atom  200 type  4   force =     0.00000039   -0.00000115   -0.00000247
     atom  201 type  4   force =    -0.00000102   -0.00000084   -0.00000262
     atom  202 type  4   force =     0.00000118    0.00000094   -0.00000353
     atom  203 type  4   force =     0.00000107    0.00000162   -0.00000129
     atom  204 type  4   force =    -0.00000150   -0.00000134   -0.00000195
     atom  205 type  4   force =     0.00000138    0.00000065   -0.00000451
     atom  206 type  4   force =    -0.00000138   -0.00000129   -0.00000452
     atom  207 type  4   force =    -0.00000173   -0.00000083   -0.00000491
     atom  208 type  4   force =     0.00000215    0.00000135   -0.00000513
     atom  209 type  4   force =     0.00000233   -0.00000078   -0.00000510
     atom  210 type  4   force =    -0.00000181    0.00000064   -0.00000521
     atom  211 type  4   force =     0.00000104   -0.00000209   -0.00000547
     atom  212 type  4   force =    -0.00000108    0.00000162   -0.00000590
     atom  213 type  4   force =     0.00000218   -0.00000016   -0.00000662
     atom  214 type  4   force =    -0.00000236    0.00000042   -0.00000638
     atom  215 type  4   force =     0.00000071   -0.00000051   -0.00000796
     atom  216 type  4   force =    -0.00000064    0.00000048   -0.00000682
     atom  217 type  4   force =     0.00000036   -0.00000054   -0.00000330
     atom  218 type  4   force =    -0.00000077    0.00000059   -0.00000342
     atom  219 type  4   force =     0.00000103   -0.00000067   -0.00000358
     atom  220 type  4   force =     0.00000009    0.00000094   -0.00000413
     atom  221 type  4   force =     0.00000126   -0.00000032   -0.00000396
     atom  222 type  4   force =    -0.00000214   -0.00000017   -0.00000421
     atom  223 type  4   force =     0.00000139   -0.00000063   -0.00000453
     atom  224 type  4   force =    -0.00000137    0.00000165   -0.00000473
     atom  225 type  4   force =     0.00000104    0.00000193   -0.00000453
     atom  226 type  4   force =    -0.00000041   -0.00000203   -0.00000544
     atom  227 type  4   force =    -0.00000195   -0.00000229   -0.00000476
     atom  228 type  4   force =     0.00000071    0.00000176   -0.00000460
     atom  229 type  4   force =     0.00000002   -0.00000240   -0.00000560
     atom  230 type  4   force =     0.00000026    0.00000263   -0.00000621
     atom  231 type  4   force =     0.00000071    0.00000246   -0.00000634
     atom  232 type  4   force =    -0.00000004   -0.00000233   -0.00000659
     atom  233 type  4   force =    -0.00000112    0.00000144   -0.00000682
     atom  234 type  4   force =     0.00000212   -0.00000191   -0.00000684
     atom  235 type  4   force =     0.00000202   -0.00000048   -0.00000661
     atom  236 type  4   force =    -0.00000209    0.00000080   -0.00000675
     atom  237 type  4   force =     0.00000069   -0.00000198   -0.00000653
     atom  238 type  4   force =    -0.00000083    0.00000210   -0.00000610
     atom  239 type  4   force =     0.00000105   -0.00000078   -0.00000772
     atom  240 type  4   force =    -0.00000171    0.00000031   -0.00000719
     atom  241 type  4   force =     0.00000115   -0.00000061   -0.00000310
     atom  242 type  4   force =    -0.00000092    0.00000071   -0.00000328
     atom  243 type  4   force =     0.00000044   -0.00000021   -0.00000313
     atom  244 type  4   force =    -0.00000077   -0.00000061   -0.00000371
     atom  245 type  4   force =     0.00000039   -0.00000039   -0.00000310
     atom  246 type  4   force =    -0.00000010    0.00000122   -0.00000345
     atom  247 type  4   force =    -0.00000134    0.00000080   -0.00000314
     atom  248 type  4   force =     0.00000093   -0.00000101   -0.00000368
     atom  249 type  4   force =    -0.00000135   -0.00000089   -0.00000328
     atom  250 type  4   force =     0.00000165    0.00000042   -0.00000389
     atom  251 type  4   force =     0.00000117    0.00000142   -0.00000404
     atom  252 type  4   force =    -0.00000152   -0.00000087   -0.00000432
     atom  253 type  4   force =     0.00000112    0.00000062   -0.00000407
     atom  254 type  4   force =    -0.00000107   -0.00000020   -0.00000406
     atom  255 type  4   force =    -0.00000145   -0.00000113   -0.00000518
     atom  256 type  4   force =     0.00000160    0.00000081   -0.00000470
     atom  257 type  4   force =     0.00000236   -0.00000017   -0.00000418
     atom  258 type  4   force =    -0.00000183   -0.00000039   -0.00000487
     atom  259 type  4   force =     0.00000173   -0.00000035   -0.00000462
     atom  260 type  4   force =    -0.00000133    0.00000066   -0.00000546
     atom  261 type  4   force =     0.00000084   -0.00000079   -0.00000299
     atom  262 type  4   force =    -0.00000125    0.00000049   -0.00000281
     atom  263 type  4   force =    -0.00000058    0.00000053   -0.00000486
     atom  264 type  4   force =     0.00000090    0.00000012   -0.00000335
     atom  265 type  4   force =    -0.00000043   -0.00000076   -0.00000081
     atom  266 type  4   force =    -0.00000008    0.00000074   -0.00000133
     atom  267 type  4   force =     0.00000150   -0.00000036   -0.00000365
     atom  268 type  4   force =    -0.00000013    0.00000072   -0.00000447
     atom  269 type  4   force =     0.00000097    0.00000063   -0.00000184
     atom  270 type  4   force =    -0.00000277   -0.00000148   -0.00000098
     atom  271 type  4   force =    -0.00000065    0.00000067    0.00000023
     atom  272 type  4   force =     0.00000115   -0.00000112   -0.00000025
     atom  273 type  4   force =     0.00000042   -0.00000110   -0.00000056
     atom  274 type  4   force =    -0.00000050    0.00000271   -0.00000043
     atom  275 type  4   force =    -0.00000233   -0.00000083   -0.00000109
     atom  276 type  4   force =     0.00000173    0.00000115   -0.00000165
     atom  277 type  4   force =    -0.00000097   -0.00000046   -0.00000155
     atom  278 type  4   force =     0.00000040    0.00000128   -0.00000142
     atom  279 type  4   force =    -0.00000127    0.00000210    0.00000322
     atom  280 type  4   force =     0.00000029   -0.00000115    0.00000177
     atom  281 type  4   force =     0.00000009    0.00000057    0.00000301
     atom  282 type  4   force =     0.00000075   -0.00000134    0.00000198
     atom  283 type  4   force =     0.00000191   -0.00000185   -0.00000196
     atom  284 type  4   force =     0.00000097    0.00000089    0.00000007
     atom  285 type  4   force =    -0.00000138    0.00000277    0.00000331
     atom  286 type  4   force =     0.00000201   -0.00000283    0.00000202
     atom  287 type  4   force =     0.00000088    0.00000080   -0.00000028
     atom  288 type  4   force =    -0.00000207   -0.00000116   -0.00000047

     Total force =     0.111230     Total SCF correction =     0.000092

     Writing all to output data dir ./temp/0D00125Ha.save/

     init_run     :      5.77s CPU      5.00s WALL (       1 calls)
     electrons    :    434.10s CPU    367.61s WALL (       1 calls)
     forces       :      4.20s CPU      3.06s WALL (       1 calls)

     Called by init_run:
     wfcinit      :      2.91s CPU      2.88s WALL (       1 calls)
     potinit      :      0.90s CPU      0.48s WALL (       1 calls)
     hinit0       :      1.37s CPU      1.04s WALL (       1 calls)

     Called by electrons:
     c_bands      :    401.55s CPU    350.73s WALL (      24 calls)
     sum_band     :     30.55s CPU     15.41s WALL (      24 calls)
     v_of_rho     :      1.52s CPU      1.02s WALL (      25 calls)
     mix_rho      :      0.34s CPU      0.22s WALL (      24 calls)

     Called by c_bands:
     init_us_2    :      2.19s CPU      1.17s WALL (      49 calls)
     init_us_2:cp :      2.19s CPU      1.17s WALL (      49 calls)
     regterg      :    396.85s CPU    347.89s WALL (      36 calls)

     Called by *egterg:
     rdiaghg      :    112.28s CPU     64.45s WALL (     472 calls)
     h_psi        :    191.60s CPU    190.19s WALL (     473 calls)
     g_psi        :      0.66s CPU      0.34s WALL (     436 calls)

     Called by h_psi:
     h_psi:calbec :     38.89s CPU     38.94s WALL (     473 calls)
     vloc_psi     :    115.42s CPU    113.86s WALL (     473 calls)
     add_vuspsi   :     36.06s CPU     36.77s WALL (     473 calls)

     General routines
     calbec       :     40.21s CPU     40.26s WALL (     477 calls)
     fft          :      1.15s CPU      0.87s WALL (     208 calls)
     ffts         :      0.13s CPU      0.07s WALL (      24 calls)
     fftw         :    132.87s CPU    118.31s WALL (  126524 calls)

     Parallel routines

     PWSCF        :   7m36.46s CPU   6m31.10s WALL


   This run was terminated on:  16:14:39  20Mar2025            

=------------------------------------------------------------------------------=
   JOB DONE.
=------------------------------------------------------------------------------=
