
     Program PWSCF v.7.2 starts on 20Mar2025 at 16:37:32 

     This program is part of the open-source Quantum ESPRESSO suite
     for quantum simulation of materials; please cite
         "P. Giannozzi et al., J. Phys.:Condens. Matter 21 395502 (2009);
         "P. Giannozzi et al., J. Phys.:Condens. Matter 29 465901 (2017);
         "P. Giannozzi et al., J. Chem. Phys. 152 154105 (2020);
          URL http://www.quantum-espresso.org", 
     in publications or presentations arising from this work. More details at
     http://www.quantum-espresso.org/quote

     Parallel version (MPI & OpenMP), running on     480 processor cores
     Number of MPI processes:               240
     Threads/MPI process:                     2

     MPI processes distributed on    10 nodes
     705801 MiB available memory on the printing compute node when the environment starts

     Reading input from LLZO_LaTermination_M0D0025Ha.scf.in

     Current dimensions of program PWSCF are:
     Max number of different atomic species (ntypx) = 10
     Max number of k-points (npk) =  40000
     Max angular momentum in pseudopotentials (lmaxx) =  4

     gamma-point specific algorithms are used

     R & G space division:  proc/nbgrp/npool/nimage =     240
     Subspace diagonalization in iterative solution of the eigenvalue problem:
     one sub-group per band group will be used
     ELPA distributed-memory algorithm (size of sub-group: 11* 11 procs)


     Parallelization info
     --------------------
     sticks:   dense  smooth     PW     G-vecs:    dense   smooth      PW
     Min          50      50     11                18754    18754    2312
     Max          52      52     14                18892    18892    2426
     Sum       12387   12387   3101              4520369  4520369  565145

     Using Slab Decomposition



     bravais-lattice index     =            0
     lattice parameter (alat)  =      21.3406  a.u.
     unit-cell volume          =   39187.6345 (a.u.)^3
     number of atoms/cell      =          288
     number of atomic types    =            4
     number of electrons       =      1800.00
     number of Kohn-Sham states=         1080
     kinetic-energy cutoff     =      90.0000  Ry
     charge density cutoff     =     360.0000  Ry
     scf convergence threshold =      1.0E-09
     mixing beta               =       0.7000
     number of iterations used =            8  plain     mixing
     Exchange-correlation= PBE
                           (   1   4   3   4   0   0   0)

     celldm(1)=  21.340634  celldm(2)=   0.000000  celldm(3)=   0.000000
     celldm(4)=   0.000000  celldm(5)=   0.000000  celldm(6)=   0.000000

     crystal axes: (cart. coord. in units of alat)
               a(1) = (   1.000000   0.000000   0.000000 )  
               a(2) = (  -0.316403   0.948624   0.000000 )  
               a(3) = (   0.000000   0.000000   4.250429 )  

     reciprocal axes: (cart. coord. in units 2 pi/alat)
               b(1) = (  1.000000  0.333539 -0.000000 )  
               b(2) = (  0.000000  1.054158  0.000000 )  
               b(3) = (  0.000000 -0.000000  0.235270 )  


     PseudoPot. # 1 for Li read from file:
     ./Li.upf
     MD5 check sum: 36b212ba84a3343c64836813e23b5a31
     Pseudo is Norm-conserving, Zval =  3.0
     Generated using ONCVPSP code by D. R. Hamann
     Using radial grid of 1938 points,  4 beta functions with: 
                l(1) =   0
                l(2) =   0
                l(3) =   1
                l(4) =   1

     PseudoPot. # 2 for La read from file:
     ./La.upf
     MD5 check sum: 94ac605e04917972278bb538f6bd832e
     Pseudo is Norm-conserving + core correction, Zval = 11.0
     Generated using ONCVPSP code by D. R. Hamann
     Using radial grid of 1816 points,  8 beta functions with: 
                l(1) =   0
                l(2) =   0
                l(3) =   1
                l(4) =   1
                l(5) =   2
                l(6) =   2
                l(7) =   3
                l(8) =   3

     PseudoPot. # 3 for Zr read from file:
     ./Zr.upf
     MD5 check sum: 7356faafce8c11995bde75aded518977
     Pseudo is Norm-conserving + core correction, Zval = 12.0
     Generated using ONCVPSP code by D. R. Hamann
     Using radial grid of 1612 points,  6 beta functions with: 
                l(1) =   0
                l(2) =   0
                l(3) =   1
                l(4) =   1
                l(5) =   2
                l(6) =   2

     PseudoPot. # 4 for O  read from file:
     ./O.upf
     MD5 check sum: f9f408bc39120c85e44a0bb1c57dbd9f
     Pseudo is Norm-conserving + core correction, Zval =  6.0
     Generated using ONCVPSP code by D. R. Hamann
     Using radial grid of  934 points,  5 beta functions with: 
                l(1) =   0
                l(2) =   0
                l(3) =   1
                l(4) =   1
                l(5) =   2

     atomic species   valence    mass     pseudopotential
        Li             3.00     6.90000     Li( 1.00)
        La            11.00   139.00000     La( 1.00)
        Zr            12.00    91.22400     Zr( 1.00)
        O              6.00    16.00000     O ( 1.00)

     No symmetry found



   Cartesian axes

     site n.     atom                  positions (alat units)
         1           Li  tau(   1) = (  -0.0401741   0.5314518   0.9528658  )
         2           Li  tau(   2) = (   0.1309308   0.0696081   0.9385469  )
         3           Li  tau(   3) = (   0.8538406   0.0434466   0.9666809  )
         4           Li  tau(   4) = (   0.7118945   0.5489094   1.0005721  )
         5           Li  tau(   5) = (  -0.2409594   0.7769992   1.0208612  )
         6           Li  tau(   6) = (   0.3459555   0.9486075   1.0723897  )
         7           Li  tau(   7) = (   0.1356213   0.5221967   1.0728849  )
         8           Li  tau(   8) = (  -0.1896788   0.9477617   1.1409935  )
         9           Li  tau(   9) = (   0.6170900   0.5210270   1.1890965  )
        10           Li  tau(  10) = (   0.2309895   0.6668810   1.2076216  )
        11           Li  tau(  11) = (   0.2165960   0.9161132   1.2242957  )
        12           Li  tau(  12) = (   0.4182676   0.5328995   1.2974048  )
        13           Li  tau(  13) = (   0.2942079   0.0022691   1.2965237  )
        14           Li  tau(  14) = (   0.1771489   0.4655346   1.2882004  )
        15           Li  tau(  15) = (   0.6393455   0.1375649   1.3415002  )
        16           Li  tau(  16) = (   0.1335419   0.1468095   1.3351564  )
        17           Li  tau(  17) = (   0.6320857   0.3742104   1.3490262  )
        18           Li  tau(  18) = (   0.0399456   0.3312435   1.4167569  )
        19           Li  tau(  19) = (   0.8171725   0.2454882   1.4305787  )
        20           Li  tau(  20) = (   0.5613585   0.5676589   1.4466564  )
        21           Li  tau(  21) = (  -0.1079433   0.8954757   1.5056956  )
        22           Li  tau(  22) = (   0.7056349   0.1025367   1.5792814  )
        23           Li  tau(  23) = (   0.0320763   0.4625938   1.6111084  )
        24           Li  tau(  24) = (  -0.2553978   0.7734398   1.6148849  )
        25           Li  tau(  25) = (   0.5413538   0.6917385   1.6240346  )
        26           Li  tau(  26) = (  -0.0635491   0.6739187   1.6619951  )
        27           Li  tau(  27) = (  -0.0532046   0.8916387   1.7146366  )
        28           Li  tau(  28) = (   0.4428583   0.8747493   1.7009824  )
        29           Li  tau(  29) = (   0.5612555   0.0651713   1.7472496  )
        30           Li  tau(  30) = (   0.4193567   0.5433533   1.7379959  )
        31           Li  tau(  31) = (   0.2128411   0.4645996   1.7790350  )
        32           Li  tau(  32) = (   0.3581659   0.1027038   1.8261314  )
        33           Li  tau(  33) = (   0.3737168   0.3226177   1.8347685  )
        34           Li  tau(  34) = (  -0.0137717   0.4956248   1.8308839  )
        35           Li  tau(  35) = (   0.7503689   0.0750828   1.8671986  )
        36           Li  tau(  36) = (   0.4481022   0.4998232   1.9550951  )
        37           Li  tau(  37) = (   0.2360226   0.0770414   2.0097381  )
        38           Li  tau(  38) = (   0.8478227   0.2280218   2.0167662  )
        39           Li  tau(  39) = (  -0.1413950   0.4617279   2.0265256  )
        40           Li  tau(  40) = (   0.0279178   0.0844800   2.0985060  )
        41           Li  tau(  41) = (   0.6418812   0.4963596   2.1045683  )
        42           Li  tau(  42) = (   0.8006875   0.0225167   2.1037308  )
        43           Li  tau(  43) = (  -0.0415310   0.6284323   2.1538031  )
        44           Li  tau(  44) = (   0.4593846   0.6267310   2.1528822  )
        45           Li  tau(  45) = (  -0.0515820   0.8631856   2.1612773  )
        46           Li  tau(  46) = (   0.3581290   0.8224719   2.2309911  )
        47           Li  tau(  47) = (   0.1405007   0.7382607   2.2406643  )
        48           Li  tau(  48) = (   0.1905771   0.1113115   2.2480655  )
        49           Li  tau(  49) = (   0.5237185   0.4442202   2.3019042  )
        50           Li  tau(  50) = (   0.0237434   0.5980741   2.3881179  )
        51           Li  tau(  51) = (   0.6650222   0.0049314   2.4262732  )
        52           Li  tau(  52) = (   0.3814689   0.3172837   2.4230060  )
        53           Li  tau(  53) = (   0.1743810   0.2345610   2.4327829  )
        54           Li  tau(  54) = (   0.5710180   0.2062794   2.4867857  )
        55           Li  tau(  55) = (   0.5744325   0.4303424   2.5199329  )
        56           Li  tau(  56) = (   0.0740953   0.4177703   2.5111206  )
        57           Li  tau(  57) = (  -0.1187133   0.5610496   2.5584903  )
        58           Li  tau(  58) = (   0.0519769   0.0928062   2.5487406  )
        59           Li  tau(  59) = (   0.8445231   0.0127362   2.5939746  )
        60           Li  tau(  60) = (   0.6735025   0.5957282   2.6343368  )
        61           Li  tau(  61) = (   0.6905210   0.8193168   2.6413502  )
        62           Li  tau(  62) = (   0.6141528   0.0352054   2.6511848  )
        63           Li  tau(  63) = (   0.0704674   0.5661842   2.6824947  )
        64           Li  tau(  64) = (   0.0798383   0.0473235   2.7647392  )
        65           Li  tau(  65) = (   0.5499762   0.5657113   2.8171637  )
        66           Li  tau(  66) = (   0.1662536   0.7290179   2.8267159  )
        67           Li  tau(  67) = (   0.4855838   0.0094029   2.8481367  )
        68           Li  tau(  68) = (   0.3401180   0.5827416   2.9065538  )
        69           Li  tau(  69) = (   0.2652705   0.0454758   2.9235969  )
        70           Li  tau(  70) = (   0.1217015   0.5209083   2.9105600  )
        71           Li  tau(  71) = (   0.5876259   0.1828756   2.9787643  )
        72           Li  tau(  72) = (   0.0617813   0.1805987   2.9756636  )
        73           Li  tau(  73) = (   0.6004570   0.4102551   2.9836354  )
        74           Li  tau(  74) = (  -0.0044596   0.3772326   3.0327479  )
        75           Li  tau(  75) = (   0.7948367   0.3024377   3.0594680  )
        76           Li  tau(  76) = (   0.5091677   0.6011066   3.0432121  )
        77           Li  tau(  77) = (  -0.1997955   0.9442241   3.0930330  )
        78           Li  tau(  78) = (   0.6580205   0.1960587   3.1845357  )
        79           Li  tau(  79) = (  -0.0412607   0.5050288   3.2200147  )
        80           Li  tau(  80) = (   0.6619108   0.8213569   3.2164610  )
        81           Li  tau(  81) = (   0.4667152   0.7100722   3.2487273  )
        82           Li  tau(  82) = (  -0.1334777   0.7277058   3.2617371  )
        83           Li  tau(  83) = (   0.1972213   0.0072415   3.3132217  )
        84           Li  tau(  84) = (   0.3841945   0.9459370   3.2958967  )
        85           La  tau(  85) = (   0.2479666   0.7487271   0.9240042  )
        86           La  tau(  86) = (   0.3750830   0.1032760   1.0320986  )
        87           La  tau(  87) = (   0.4108498   0.4413654   1.0291867  )
        88           La  tau(  88) = (   0.8806724   0.0952360   1.2177249  )
        89           La  tau(  89) = (  -0.1115144   0.4403914   1.2069898  )
        90           La  tau(  90) = (   0.3760646   0.2649240   1.3186865  )
        91           La  tau(  91) = (   0.7174323   0.7529258   1.3274736  )
        92           La  tau(  92) = (   0.3852939   0.8033441   1.4174621  )
        93           La  tau(  93) = (   0.0478718   0.6837298   1.4086100  )
        94           La  tau(  94) = (   0.5387887   0.3299230   1.6169527  )
        95           La  tau(  95) = (   0.1996293   0.2146087   1.6222216  )
        96           La  tau(  96) = (   0.2034911   0.7447059   1.7210685  )
        97           La  tau(  97) = (   0.8639961   0.2787414   1.7232570  )
        98           La  tau(  98) = (   0.7018434   0.5770634   1.8232028  )
        99           La  tau(  99) = (  -0.2970985   0.9351959   1.8305622  )
       100           La  tau( 100) = (   0.1948814   0.5804426   2.0269246  )
       101           La  tau( 101) = (   0.2008393   0.9361509   2.0269931  )
       102           La  tau( 102) = (   0.6942969   0.7614671   2.1289111  )
       103           La  tau( 103) = (   0.3560223   0.2917327   2.1280650  )
       104           La  tau( 104) = (   0.0159556   0.3485602   2.2304904  )
       105           La  tau( 105) = (   0.6801921   0.2308445   2.2312122  )
       106           La  tau( 106) = (  -0.1442088   0.8263428   2.4265752  )
       107           La  tau( 107) = (   0.5166062   0.7090018   2.4331518  )
       108           La  tau( 108) = (   0.8340010   0.2908115   2.5370335  )
       109           La  tau( 109) = (   0.1818851   0.7690818   2.5317492  )
       110           La  tau( 110) = (   0.3321930   0.1209856   2.6350903  )
       111           La  tau( 111) = (   0.3348582   0.4773195   2.6399246  )
       112           La  tau( 112) = (   0.8231528   0.1229007   2.8479358  )
       113           La  tau( 113) = (   0.8296707   0.4821995   2.8374207  )
       114           La  tau( 114) = (   0.3249933   0.3055389   2.9378795  )
       115           La  tau( 115) = (   0.6753111   0.7805866   2.9234142  )
       116           La  tau( 116) = (   0.3308863   0.8479971   3.0456944  )
       117           La  tau( 117) = (  -0.0074688   0.7242774   3.0356819  )
       118           La  tau( 118) = (   0.4847919   0.3992438   3.2352228  )
       119           La  tau( 119) = (   0.1520868   0.2500207   3.2277706  )
       120           La  tau( 120) = (   0.1491760   0.7643674   3.3264251  )
       121           Zr  tau( 121) = (   0.6377188   0.2615917   1.1116843  )
       122           Zr  tau( 122) = (   0.1174388   0.2619688   1.0910098  )
       123           Zr  tau( 123) = (   0.4878526   0.7432788   1.1127195  )
       124           Zr  tau( 124) = (  -0.0118360   0.7402248   1.0886267  )
       125           Zr  tau( 125) = (   0.9493535   0.0392864   1.5232742  )
       126           Zr  tau( 126) = (   0.7958436   0.5120100   1.5176883  )
       127           Zr  tau( 127) = (   0.4474616   0.0311370   1.5200999  )
       128           Zr  tau( 128) = (   0.2925957   0.5079530   1.5183259  )
       129           Zr  tau( 129) = (  -0.0498924   0.7555169   1.9267789  )
       130           Zr  tau( 130) = (   0.4498379   0.7560736   1.9266420  )
       131           Zr  tau( 131) = (   0.1077390   0.2831502   1.9269117  )
       132           Zr  tau( 132) = (   0.6092200   0.2826131   1.9249006  )
       133           Zr  tau( 133) = (   0.2663741   0.5278757   2.3322722  )
       134           Zr  tau( 134) = (   0.4263547   0.0549622   2.3305043  )
       135           Zr  tau( 135) = (   0.7661909   0.5279926   2.3318425  )
       136           Zr  tau( 136) = (   0.9236358   0.0541269   2.3323735  )
       137           Zr  tau( 137) = (   0.5807740   0.2999254   2.7412308  )
       138           Zr  tau( 138) = (   0.0797148   0.2994099   2.7383551  )
       139           Zr  tau( 139) = (   0.4219125   0.7757587   2.7384962  )
       140           Zr  tau( 140) = (  -0.0711412   0.7779923   2.7326979  )
       141           Zr  tau( 141) = (   0.8838133   0.0895808   3.1700434  )
       142           Zr  tau( 142) = (   0.7357321   0.5547446   3.1472268  )
       143           Zr  tau( 143) = (   0.3918753   0.0677421   3.1653210  )
       144           Zr  tau( 144) = (   0.2374013   0.5399984   3.1427109  )
       145           O   tau( 145) = (   0.4273855   0.8436099   0.9651490  )
       146           O   tau( 146) = (   0.0824292   0.6442089   0.9516886  )
       147           O   tau( 147) = (   0.5045727   0.2652518   0.9807854  )
       148           O   tau( 148) = (   0.2239161   0.2105859   0.9506815  )
       149           O   tau( 149) = (  -0.1014333   0.8834309   1.0067566  )
       150           O   tau( 150) = (   0.5577909   0.5941607   1.0322859  )
       151           O   tau( 151) = (   0.7494457   0.1356069   1.0524431  )
       152           O   tau( 152) = (   0.0171743   0.4030213   1.0406726  )
       153           O   tau( 153) = (   0.7280356   0.4147732   1.0831274  )
       154           O   tau( 154) = (   0.0126613   0.1121503   1.0480922  )
       155           O   tau( 155) = (   0.3212924   0.6382680   1.0707820  )
       156           O   tau( 156) = (   0.1522364   0.8556475   1.0656204  )
       157           O   tau( 157) = (  -0.1515598   0.6334951   1.0448072  )
       158           O   tau( 158) = (   0.6471026   0.8304250   1.1361875  )
       159           O   tau( 159) = (   0.2508743   0.3897829   1.1545287  )
       160           O   tau( 160) = (   0.5160530   0.1361178   1.1966360  )
       161           O   tau( 161) = (   0.5073038   0.3939765   1.2038700  )
       162           O   tau( 162) = (   0.2406841   0.1341097   1.1941272  )
       163           O   tau( 163) = (   0.3894770   0.8738009   1.2168197  )
       164           O   tau( 164) = (   0.0679953   0.6069637   1.2057346  )
       165           O   tau( 165) = (   0.0148968   0.2664882   1.2550713  )
       166           O   tau( 166) = (   0.7419805   0.2610841   1.2740031  )
       167           O   tau( 167) = (  -0.0793091   0.7998422   1.2561650  )
       168           O   tau( 168) = (   0.5142695   0.6692848   1.2867600  )
       169           O   tau( 169) = (   0.7120629   0.5281451   1.3489026  )
       170           O   tau( 170) = (   0.0344042   0.0151908   1.3568875  )
       171           O   tau( 171) = (   0.2666255   0.6046510   1.3601069  )
       172           O   tau( 172) = (   0.1714062   0.8648654   1.3751109  )
       173           O   tau( 173) = (   0.7887906   0.0709345   1.4308889  )
       174           O   tau( 174) = (  -0.0456162   0.4766592   1.4253234  )
       175           O   tau( 175) = (   0.2858863   0.0920937   1.4427768  )
       176           O   tau( 176) = (   0.4538073   0.4384712   1.4438990  )
       177           O   tau( 177) = (   0.2098197   0.3553652   1.4401462  )
       178           O   tau( 178) = (   0.5301429   0.1870787   1.4556395  )
       179           O   tau( 179) = (  -0.1547780   0.6971069   1.5008447  )
       180           O   tau( 180) = (   0.5945490   0.8028747   1.5065814  )
       181           O   tau( 181) = (  -0.0068685   0.2205628   1.5383633  )
       182           O   tau( 182) = (   0.7426216   0.3340107   1.5459333  )
       183           O   tau( 183) = (   0.0399908   0.8296294   1.5899910  )
       184           O   tau( 184) = (   0.3789678   0.6570843   1.5930099  )
       185           O   tau( 185) = (   0.2891978   0.9158865   1.6017976  )
       186           O   tau( 186) = (   0.1382820   0.5859127   1.5895691  )
       187           O   tau( 187) = (   0.6362398   0.5526996   1.6108003  )
       188           O   tau( 188) = (   0.1055337   0.0029184   1.6240961  )
       189           O   tau( 189) = (   0.4065014   0.1404890   1.6685327  )
       190           O   tau( 190) = (   0.3276682   0.4006998   1.6706198  )
       191           O   tau( 191) = (   0.8574166   0.0606502   1.6871912  )
       192           O   tau( 192) = (  -0.1206837   0.5058734   1.6873595  )
       193           O   tau( 193) = (   0.0748446   0.3609066   1.7569096  )
       194           O   tau( 194) = (   0.6583611   0.2018628   1.7601440  )
       195           O   tau( 195) = (  -0.1617902   0.7586617   1.7750471  )
       196           O   tau( 196) = (   0.5664267   0.7537696   1.7783762  )
       197           O   tau( 197) = (   0.5255665   0.4202697   1.8256546  )
       198           O   tau( 198) = (   0.1941281   0.1421395   1.8360412  )
       199           O   tau( 199) = (   0.0728304   0.6332688   1.8516382  )
       200           O   tau( 200) = (   0.3375721   0.8844472   1.8456956  )
       201           O   tau( 201) = (   0.0656870   0.8861457   1.8550115  )
       202           O   tau( 202) = (   0.3354542   0.6204574   1.8600583  )
       203           O   tau( 203) = (  -0.0472477   0.1800914   1.9001238  )
       204           O   tau( 204) = (   0.7686233   0.3809156   1.9053961  )
       205           O   tau( 205) = (   0.4483865   0.1861070   1.9411677  )
       206           O   tau( 206) = (   0.2649960   0.3880809   1.9432240  )
       207           O   tau( 207) = (   0.5709288   0.8839403   1.9944713  )
       208           O   tau( 208) = (  -0.1673537   0.6276893   1.9977306  )
       209           O   tau( 209) = (  -0.1654682   0.8820626   2.0083693  )
       210           O   tau( 210) = (   0.5600381   0.6235178   2.0052012  )
       211           O   tau( 211) = (   0.0245008   0.4227645   2.0207037  )
       212           O   tau( 212) = (   0.6934143   0.1416167   2.0188874  )
       213           O   tau( 213) = (   0.3325048   0.7614689   2.0732631  )
       214           O   tau( 214) = (   0.0600008   0.7567758   2.0811248  )
       215           O   tau( 215) = (   0.5600722   0.3542588   2.0917822  )
       216           O   tau( 216) = (   0.1457504   0.2075857   2.0956848  )
       217           O   tau( 217) = (   0.3424480   0.0663831   2.1616537  )
       218           O   tau( 218) = (   0.3499709   0.5045145   2.1651137  )
       219           O   tau( 219) = (   0.8907038   0.1580552   2.1773262  )
       220           O   tau( 220) = (   0.8085045   0.4187644   2.1847239  )
       221           O   tau( 221) = (   0.1059741   0.5637683   2.2383457  )
       222           O   tau( 222) = (   0.5853912   0.0192002   2.2375818  )
       223           O   tau( 223) = (   0.6054538   0.5901802   2.2525974  )
       224           O   tau( 224) = (  -0.2356788   0.9335534   2.2509666  )
       225           O   tau( 225) = (   0.5235546   0.8499673   2.2620540  )
       226           O   tau( 226) = (  -0.1502241   0.6836438   2.2648068  )
       227           O   tau( 227) = (   0.4759516   0.2367742   2.3122298  )
       228           O   tau( 228) = (   0.2252583   0.3452255   2.3158339  )
       229           O   tau( 229) = (   0.3089769   0.7106516   2.3507560  )
       230           O   tau( 230) = (   0.0598438   0.8236304   2.3555445  )
       231           O   tau( 231) = (   0.6748381   0.3761921   2.3982177  )
       232           O   tau( 232) = (   0.0096835   0.2052172   2.4050826  )
       233           O   tau( 233) = (  -0.0767336   0.4627083   2.4129477  )
       234           O   tau( 234) = (   0.7684597   0.1308599   2.4072604  )
       235           O   tau( 235) = (   0.2654941   0.0921704   2.4220922  )
       236           O   tau( 236) = (   0.4239097   0.4926305   2.4310885  )
       237           O   tau( 237) = (   0.7246502   0.6382534   2.4789915  )
       238           O   tau( 238) = (   0.6455974   0.8977877   2.4841063  )
       239           O   tau( 239) = (   0.1746452   0.5506560   2.4963779  )
       240           O   tau( 240) = (   0.5090804   0.0462714   2.5006341  )
       241           O   tau( 241) = (   0.3895869   0.8531902   2.5696702  )
       242           O   tau( 242) = (  -0.0222483   0.6973276   2.5697583  )
       243           O   tau( 243) = (   0.4682703   0.2986710   2.5875376  )
       244           O   tau( 244) = (   0.1963774   0.2930768   2.5898446  )
       245           O   tau( 245) = (  -0.1556603   0.9168492   2.6368487  )
       246           O   tau( 246) = (   0.5093213   0.6349919   2.6490719  )
       247           O   tau( 247) = (   0.6988948   0.1762794   2.6637520  )
       248           O   tau( 248) = (  -0.0306307   0.4300256   2.6567819  )
       249           O   tau( 249) = (   0.6941465   0.4300435   2.6652903  )
       250           O   tau( 250) = (  -0.0348807   0.1650300   2.6716964  )
       251           O   tau( 251) = (   0.2682703   0.6705035   2.7126025  )
       252           O   tau( 252) = (   0.0876737   0.8760775   2.7198171  )
       253           O   tau( 253) = (   0.7674728   0.6823684   2.7451133  )
       254           O   tau( 254) = (   0.5784280   0.8815986   2.7516547  )
       255           O   tau( 255) = (   0.2016423   0.4283146   2.8021403  )
       256           O   tau( 256) = (   0.4631313   0.1753190   2.8217422  )
       257           O   tau( 257) = (   0.4604479   0.4266897   2.8158828  )
       258           O   tau( 258) = (   0.1893437   0.1692683   2.8197750  )
       259           O   tau( 259) = (   0.3341957   0.9123330   2.8338235  )
       260           O   tau( 260) = (   0.0109518   0.6377609   2.8309482  )
       261           O   tau( 261) = (  -0.0405151   0.3044934   2.8830219  )
       262           O   tau( 262) = (   0.6919956   0.3036649   2.8916371  )
       263           O   tau( 263) = (  -0.1219692   0.8480587   2.8995149  )
       264           O   tau( 264) = (   0.4601571   0.7057095   2.9116319  )
       265           O   tau( 265) = (   0.6610157   0.5647212   2.9590270  )
       266           O   tau( 266) = (   0.9721176   0.0366668   2.9864638  )
       267           O   tau( 267) = (   0.2062559   0.6531552   2.9902705  )
       268           O   tau( 268) = (   0.1173061   0.9087102   3.0123843  )
       269           O   tau( 269) = (   0.7308552   0.1106778   3.0466528  )
       270           O   tau( 270) = (  -0.1039457   0.5145492   3.0462299  )
       271           O   tau( 271) = (   0.2352366   0.1314950   3.0693376  )
       272           O   tau( 272) = (   0.3974793   0.4778629   3.0590249  )
       273           O   tau( 273) = (   0.1584567   0.3955862   3.0575547  )
       274           O   tau( 274) = (   0.4783659   0.2212572   3.1116490  )
       275           O   tau( 275) = (  -0.2250217   0.7449031   3.1155313  )
       276           O   tau( 276) = (   0.5003556   0.8579194   3.1855030  )
       277           O   tau( 277) = (  -0.0398109   0.2555246   3.1385110  )
       278           O   tau( 278) = (   0.6721747   0.3781719   3.1448816  )
       279           O   tau( 279) = (  -0.0128929   0.8464739   3.2354956  )
       280           O   tau( 280) = (   0.3073175   0.6932600   3.2299859  )
       281           O   tau( 281) = (   0.2247218   0.9322135   3.2444881  )
       282           O   tau( 282) = (   0.0815148   0.6133238   3.2143656  )
       283           O   tau( 283) = (   0.5648201   0.5886521   3.2126606  )
       284           O   tau( 284) = (   0.0469442   0.0332460   3.2464786  )
       285           O   tau( 285) = (   0.3020974   0.1360316   3.3077066  )
       286           O   tau( 286) = (   0.2794488   0.4199818   3.2760468  )
       287           O   tau( 287) = (   0.7704661   0.1392517   3.2929744  )
       288           O   tau( 288) = (  -0.1679624   0.5739047   3.2927061  )

     number of k points=     1  Fermi-Dirac smearing, width (Ry)=  0.0000
                       cart. coord. in units 2pi/alat
        k(    1) = (   0.0000000   0.0000000   0.0000000), wk =   2.0000000

     Dense  grid:  2260185 G-vectors     FFT dimensions: ( 135, 135, 576)

     Estimated max dynamical RAM per process >     229.15 MB

     Estimated total dynamical RAM >      53.71 GB

     Initial potential from superposition of free atoms

     starting charge    1799.2393, renormalised to    1800.0000

     negative rho (up, down):  4.061E-04 0.000E+00

     Adding external electric field

     Computed dipole along edir(3) : 
        Dipole               -0.0004 Ry au,         -0.0010 Debye
        Dipole field         -0.0000 Ry au, 

        E field amplitude [Ha a.u.]: -2.5000E-03
        Potential amp.       -0.3628 Ry
        Total length         72.5655 bohr

     Starting wfcs are 1344 atomic wfcs

     total cpu time spent up to now is        5.3 secs

     Self-consistent Calculation

     iteration #  1     ecut=    90.00 Ry     beta= 0.70
     Davidson diagonalization with overlap
     ethr =  1.00E-02,  avg # of iterations =  2.0

     negative rho (up, down):  1.127E-04 0.000E+00

     Adding external electric field

     Computed dipole along edir(3) : 
        Dipole               -6.5195 Ry au,        -16.5710 Debye
        Dipole field         -0.0021 Ry au, 

        E field amplitude [Ha a.u.]: -2.5000E-03
        Potential amp.       -0.0594 Ry
        Total length         72.5655 bohr


     total cpu time spent up to now is       12.0 secs

     total energy              =  -10936.70301028 Ry
     estimated scf accuracy    <      84.70402510 Ry

     iteration #  2     ecut=    90.00 Ry     beta= 0.70
     Davidson diagonalization with overlap
     ethr =  4.71E-03,  avg # of iterations =  5.0

     negative rho (up, down):  4.374E-05 0.000E+00

     Adding external electric field

     Computed dipole along edir(3) : 
        Dipole               69.9185 Ry au,        177.7152 Debye
        Dipole field          0.0224 Ry au, 

        E field amplitude [Ha a.u.]: -2.5000E-03
        Potential amp.       -3.6168 Ry
        Total length         72.5655 bohr


     total cpu time spent up to now is       22.2 secs

     total energy              =  -10908.43183423 Ry
     estimated scf accuracy    <     311.00945855 Ry

     iteration #  3     ecut=    90.00 Ry     beta= 0.70
     Davidson diagonalization with overlap
     ethr =  4.71E-03,  avg # of iterations = 13.0

     negative rho (up, down):  3.326E-05 0.000E+00

     Adding external electric field

     Computed dipole along edir(3) : 
        Dipole                1.5007 Ry au,          3.8145 Debye
        Dipole field          0.0005 Ry au, 

        E field amplitude [Ha a.u.]: -2.5000E-03
        Potential amp.       -0.4327 Ry
        Total length         72.5655 bohr


     total cpu time spent up to now is       46.3 secs

     total energy              =  -10158.15205659 Ry
     estimated scf accuracy    <  383042.23676972 Ry

     iteration #  4     ecut=    90.00 Ry     beta= 0.70
     Davidson diagonalization with overlap
     ethr =  4.71E-03,  avg # of iterations = 16.0

     negative rho (up, down):  1.159E-05 0.000E+00

     Adding external electric field

     Computed dipole along edir(3) : 
        Dipole               -2.4631 Ry au,         -6.2605 Debye
        Dipole field         -0.0008 Ry au, 

        E field amplitude [Ha a.u.]: -2.5000E-03
        Potential amp.       -0.2482 Ry
        Total length         72.5655 bohr


     total cpu time spent up to now is       72.7 secs

     total energy              =  -10876.93353085 Ry
     estimated scf accuracy    <   15696.86320621 Ry

     iteration #  5     ecut=    90.00 Ry     beta= 0.70
     Davidson diagonalization with overlap
     ethr =  4.71E-03,  avg # of iterations = 10.0

     negative rho (up, down):  7.724E-07 0.000E+00

     Adding external electric field

     Computed dipole along edir(3) : 
        Dipole               -4.2329 Ry au,        -10.7590 Debye
        Dipole field         -0.0014 Ry au, 

        E field amplitude [Ha a.u.]: -2.5000E-03
        Potential amp.       -0.1658 Ry
        Total length         72.5655 bohr


     total cpu time spent up to now is       85.9 secs

     total energy              =  -10955.35168405 Ry
     estimated scf accuracy    <    3554.45587418 Ry

     iteration #  6     ecut=    90.00 Ry     beta= 0.70
     Davidson diagonalization with overlap
     ethr =  4.71E-03,  avg # of iterations =  9.0

     negative rho (up, down):  4.812E-03 0.000E+00

     Adding external electric field

     Computed dipole along edir(3) : 
        Dipole               -5.4991 Ry au,        -13.9773 Debye
        Dipole field         -0.0018 Ry au, 

        E field amplitude [Ha a.u.]: -2.5000E-03
        Potential amp.       -0.1069 Ry
        Total length         72.5655 bohr


     total cpu time spent up to now is       93.3 secs

     total energy              =  -10966.70977027 Ry
     estimated scf accuracy    <     872.52923319 Ry

     iteration #  7     ecut=    90.00 Ry     beta= 0.70
     Davidson diagonalization with overlap
     ethr =  4.71E-03,  avg # of iterations =  8.0

     Adding external electric field

     Computed dipole along edir(3) : 
        Dipole               -4.2538 Ry au,        -10.8121 Debye
        Dipole field         -0.0014 Ry au, 

        E field amplitude [Ha a.u.]: -2.5000E-03
        Potential amp.       -0.1649 Ry
        Total length         72.5655 bohr


     total cpu time spent up to now is      100.6 secs

     total energy              =  -10978.13332494 Ry
     estimated scf accuracy    <      16.55430283 Ry

     iteration #  8     ecut=    90.00 Ry     beta= 0.70
     Davidson diagonalization with overlap
     ethr =  9.20E-04,  avg # of iterations =  8.0

     Adding external electric field

     Computed dipole along edir(3) : 
        Dipole               -4.2410 Ry au,        -10.7795 Debye
        Dipole field         -0.0014 Ry au, 

        E field amplitude [Ha a.u.]: -2.5000E-03
        Potential amp.       -0.1655 Ry
        Total length         72.5655 bohr


     total cpu time spent up to now is      108.8 secs

     total energy              =  -10980.00613874 Ry
     estimated scf accuracy    <       2.51223421 Ry

     iteration #  9     ecut=    90.00 Ry     beta= 0.70
     Davidson diagonalization with overlap
     ethr =  1.40E-04,  avg # of iterations = 10.0

     negative rho (up, down):  1.181E-03 0.000E+00

     Adding external electric field

     Computed dipole along edir(3) : 
        Dipole               -3.9468 Ry au,        -10.0318 Debye
        Dipole field         -0.0013 Ry au, 

        E field amplitude [Ha a.u.]: -2.5000E-03
        Potential amp.       -0.1791 Ry
        Total length         72.5655 bohr


     total cpu time spent up to now is      120.4 secs

     total energy              =  -10980.12214866 Ry
     estimated scf accuracy    <       0.94149354 Ry

     iteration # 10     ecut=    90.00 Ry     beta= 0.70
     Davidson diagonalization with overlap
     ethr =  5.23E-05,  avg # of iterations = 16.0

     negative rho (up, down):  1.192E-03 0.000E+00

     Adding external electric field

     Computed dipole along edir(3) : 
        Dipole               -4.3247 Ry au,        -10.9923 Debye
        Dipole field         -0.0014 Ry au, 

        E field amplitude [Ha a.u.]: -2.5000E-03
        Potential amp.       -0.1616 Ry
        Total length         72.5655 bohr


     total cpu time spent up to now is      135.6 secs

     total energy              =  -10980.23314712 Ry
     estimated scf accuracy    <       0.22156989 Ry

     iteration # 11     ecut=    90.00 Ry     beta= 0.70
     Davidson diagonalization with overlap
     ethr =  1.23E-05,  avg # of iterations = 21.0

     negative rho (up, down):  1.066E-03 0.000E+00

     Adding external electric field

     Computed dipole along edir(3) : 
        Dipole               -4.1255 Ry au,        -10.4860 Debye
        Dipole field         -0.0013 Ry au, 

        E field amplitude [Ha a.u.]: -2.5000E-03
        Potential amp.       -0.1708 Ry
        Total length         72.5655 bohr


     total cpu time spent up to now is      156.1 secs

     total energy              =  -10980.26893549 Ry
     estimated scf accuracy    <       0.11390638 Ry

     iteration # 12     ecut=    90.00 Ry     beta= 0.70
     Davidson diagonalization with overlap
     ethr =  6.33E-06,  avg # of iterations = 22.0

     negative rho (up, down):  3.371E-04 0.000E+00

     Adding external electric field

     Computed dipole along edir(3) : 
        Dipole               -2.5082 Ry au,         -6.3751 Debye
        Dipole field         -0.0008 Ry au, 

        E field amplitude [Ha a.u.]: -2.5000E-03
        Potential amp.       -0.2461 Ry
        Total length         72.5655 bohr


     total cpu time spent up to now is      174.1 secs

     total energy              =  -10980.24129413 Ry
     estimated scf accuracy    <       0.06543100 Ry

     iteration # 13     ecut=    90.00 Ry     beta= 0.70
     Davidson diagonalization with overlap
     c_bands:  1 eigenvalues not converged
     ethr =  3.64E-06,  avg # of iterations = 60.0

     negative rho (up, down):  3.241E-04 0.000E+00

     Adding external electric field

     Computed dipole along edir(3) : 
        Dipole               -3.1332 Ry au,         -7.9638 Debye
        Dipole field         -0.0010 Ry au, 

        E field amplitude [Ha a.u.]: -2.5000E-03
        Potential amp.       -0.2170 Ry
        Total length         72.5655 bohr


     total cpu time spent up to now is      210.9 secs

     total energy              =  -10980.23945663 Ry
     estimated scf accuracy    <       0.19430643 Ry

     iteration # 14     ecut=    90.00 Ry     beta= 0.70
     Davidson diagonalization with overlap
     ethr =  3.64E-06,  avg # of iterations = 57.0

     negative rho (up, down):  3.110E-04 0.000E+00

     Adding external electric field

     Computed dipole along edir(3) : 
        Dipole               -3.3916 Ry au,         -8.6205 Debye
        Dipole field         -0.0011 Ry au, 

        E field amplitude [Ha a.u.]: -2.5000E-03
        Potential amp.       -0.2050 Ry
        Total length         72.5655 bohr


     total cpu time spent up to now is      244.2 secs

     total energy              =  -10980.26754688 Ry
     estimated scf accuracy    <       0.02076291 Ry

     iteration # 15     ecut=    90.00 Ry     beta= 0.70
     Davidson diagonalization with overlap
     ethr =  1.15E-06,  avg # of iterations = 62.0

     negative rho (up, down):  5.272E-04 0.000E+00

     Adding external electric field

     Computed dipole along edir(3) : 
        Dipole               -3.8218 Ry au,         -9.7142 Debye
        Dipole field         -0.0012 Ry au, 

        E field amplitude [Ha a.u.]: -2.5000E-03
        Potential amp.       -0.1850 Ry
        Total length         72.5655 bohr


     total cpu time spent up to now is      279.6 secs

     total energy              =  -10980.26710098 Ry
     estimated scf accuracy    <       0.01284069 Ry

     iteration # 16     ecut=    90.00 Ry     beta= 0.70
     Davidson diagonalization with overlap
     c_bands:  4 eigenvalues not converged
     ethr =  7.13E-07,  avg # of iterations = 80.0

     negative rho (up, down):  1.296E-03 0.000E+00

     Adding external electric field

     Computed dipole along edir(3) : 
        Dipole               -4.8655 Ry au,        -12.3670 Debye
        Dipole field         -0.0016 Ry au, 

        E field amplitude [Ha a.u.]: -2.5000E-03
        Potential amp.       -0.1364 Ry
        Total length         72.5655 bohr


     total cpu time spent up to now is      317.7 secs

     total energy              =  -10980.26413221 Ry
     estimated scf accuracy    <       0.00670249 Ry

     iteration # 17     ecut=    90.00 Ry     beta= 0.70
     Davidson diagonalization with overlap
     c_bands:  4 eigenvalues not converged
     ethr =  3.72E-07,  avg # of iterations = 80.0

     negative rho (up, down):  1.957E-04 0.000E+00

     Adding external electric field

     Computed dipole along edir(3) : 
        Dipole               -4.2183 Ry au,        -10.7219 Debye
        Dipole field         -0.0014 Ry au, 

        E field amplitude [Ha a.u.]: -2.5000E-03
        Potential amp.       -0.1665 Ry
        Total length         72.5655 bohr


     total cpu time spent up to now is      371.2 secs

     total energy              =  -10980.26472508 Ry
     estimated scf accuracy    <       0.01594554 Ry

     iteration # 18     ecut=    90.00 Ry     beta= 0.70
     Davidson diagonalization with overlap
     ethr =  3.72E-07,  avg # of iterations = 87.0

     negative rho (up, down):  4.378E-05 0.000E+00

     Adding external electric field

     Computed dipole along edir(3) : 
        Dipole               -4.1781 Ry au,        -10.6197 Debye
        Dipole field         -0.0013 Ry au, 

        E field amplitude [Ha a.u.]: -2.5000E-03
        Potential amp.       -0.1684 Ry
        Total length         72.5655 bohr


     total cpu time spent up to now is      420.2 secs

     total energy              =  -10980.26734811 Ry
     estimated scf accuracy    <       0.00047524 Ry

     iteration # 19     ecut=    90.00 Ry     beta= 0.70
     Davidson diagonalization with overlap
     ethr =  2.64E-08,  avg # of iterations =  4.0

     negative rho (up, down):  1.708E-05 0.000E+00

     Adding external electric field

     Computed dipole along edir(3) : 
        Dipole               -4.1746 Ry au,        -10.6107 Debye
        Dipole field         -0.0013 Ry au, 

        E field amplitude [Ha a.u.]: -2.5000E-03
        Potential amp.       -0.1685 Ry
        Total length         72.5655 bohr


     total cpu time spent up to now is      427.8 secs

     total energy              =  -10980.26744960 Ry
     estimated scf accuracy    <       0.00004195 Ry

     iteration # 20     ecut=    90.00 Ry     beta= 0.70
     Davidson diagonalization with overlap
     c_bands:  5 eigenvalues not converged
     ethr =  2.33E-09,  avg # of iterations = 20.0

     negative rho (up, down):  4.393E-06 0.000E+00

     Adding external electric field

     Computed dipole along edir(3) : 
        Dipole               -4.1723 Ry au,        -10.6050 Debye
        Dipole field         -0.0013 Ry au, 

        E field amplitude [Ha a.u.]: -2.5000E-03
        Potential amp.       -0.1686 Ry
        Total length         72.5655 bohr


     total cpu time spent up to now is      440.9 secs

     total energy              =  -10980.26745929 Ry
     estimated scf accuracy    <       0.00002596 Ry

     iteration # 21     ecut=    90.00 Ry     beta= 0.70
     Davidson diagonalization with overlap
     c_bands:  3 eigenvalues not converged
     ethr =  1.44E-09,  avg # of iterations = 20.0

     negative rho (up, down):  9.254E-07 0.000E+00

     Adding external electric field

     Computed dipole along edir(3) : 
        Dipole               -4.1759 Ry au,        -10.6140 Debye
        Dipole field         -0.0013 Ry au, 

        E field amplitude [Ha a.u.]: -2.5000E-03
        Potential amp.       -0.1685 Ry
        Total length         72.5655 bohr


     total cpu time spent up to now is      451.7 secs

     total energy              =  -10980.26746339 Ry
     estimated scf accuracy    <       0.00000474 Ry

     iteration # 22     ecut=    90.00 Ry     beta= 0.70
     Davidson diagonalization with overlap
     c_bands:  1 eigenvalues not converged
     ethr =  2.63E-10,  avg # of iterations = 20.0

     negative rho (up, down):  2.762E-07 0.000E+00

     Adding external electric field

     Computed dipole along edir(3) : 
        Dipole               -4.1759 Ry au,        -10.6140 Debye
        Dipole field         -0.0013 Ry au, 

        E field amplitude [Ha a.u.]: -2.5000E-03
        Potential amp.       -0.1685 Ry
        Total length         72.5655 bohr


     total cpu time spent up to now is      462.3 secs

     total energy              =  -10980.26746420 Ry
     estimated scf accuracy    <       0.00000088 Ry

     iteration # 23     ecut=    90.00 Ry     beta= 0.70
     Davidson diagonalization with overlap
     ethr =  4.89E-11,  avg # of iterations =  5.0

     negative rho (up, down):  6.658E-08 0.000E+00

     Adding external electric field

     Computed dipole along edir(3) : 
        Dipole               -4.1755 Ry au,        -10.6130 Debye
        Dipole field         -0.0013 Ry au, 

        E field amplitude [Ha a.u.]: -2.5000E-03
        Potential amp.       -0.1685 Ry
        Total length         72.5655 bohr


     total cpu time spent up to now is      470.7 secs

     total energy              =  -10980.26746441 Ry
     estimated scf accuracy    <       0.00000022 Ry

     iteration # 24     ecut=    90.00 Ry     beta= 0.70
     Davidson diagonalization with overlap
     ethr =  1.20E-11,  avg # of iterations =  5.0

     Adding external electric field

     Computed dipole along edir(3) : 
        Dipole               -4.1748 Ry au,        -10.6113 Debye
        Dipole field         -0.0013 Ry au, 

        E field amplitude [Ha a.u.]: -2.5000E-03
        Potential amp.       -0.1685 Ry
        Total length         72.5655 bohr


     total cpu time spent up to now is      478.9 secs

     total energy              =  -10980.26746446 Ry
     estimated scf accuracy    <       0.00000006 Ry

     iteration # 25     ecut=    90.00 Ry     beta= 0.70
     Davidson diagonalization with overlap
     ethr =  3.52E-12,  avg # of iterations =  5.0

     Adding external electric field

     Computed dipole along edir(3) : 
        Dipole               -4.1749 Ry au,        -10.6117 Debye
        Dipole field         -0.0013 Ry au, 

        E field amplitude [Ha a.u.]: -2.5000E-03
        Potential amp.       -0.1685 Ry
        Total length         72.5655 bohr


     total cpu time spent up to now is      486.8 secs

     total energy              =  -10980.26746447 Ry
     estimated scf accuracy    <       0.00000002 Ry

     iteration # 26     ecut=    90.00 Ry     beta= 0.70
     Davidson diagonalization with overlap
     ethr =  8.80E-13,  avg # of iterations =  5.0

     Adding external electric field

     Computed dipole along edir(3) : 
        Dipole               -4.1750 Ry au,        -10.6118 Debye
        Dipole field         -0.0013 Ry au, 

        E field amplitude [Ha a.u.]: -2.5000E-03
        Potential amp.       -0.1685 Ry
        Total length         72.5655 bohr


     total cpu time spent up to now is      495.2 secs

     total energy              =  -10980.26746447 Ry
     estimated scf accuracy    <          2.9E-09 Ry

     iteration # 27     ecut=    90.00 Ry     beta= 0.70
     Davidson diagonalization with overlap
     ethr =  1.64E-13,  avg # of iterations =  4.0

     Adding external electric field

     Computed dipole along edir(3) : 
        Dipole               -4.1746 Ry au,        -10.6108 Debye
        Dipole field         -0.0013 Ry au, 

        E field amplitude [Ha a.u.]: -2.5000E-03
        Potential amp.       -0.1685 Ry
        Total length         72.5655 bohr


     total cpu time spent up to now is      503.7 secs

     End of self-consistent calculation

          k = 0.0000 0.0000 0.0000 (282573 PWs)   bands (ev):

   -44.8946 -44.7667 -44.6276 -44.6117 -44.5995 -44.5784 -44.4946 -44.4945
   -44.4866 -44.4835 -44.3847 -44.3714 -44.3714 -44.3683 -44.3239 -44.3038
   -44.2776 -44.2692 -44.2676 -44.2577 -44.1747 -44.1677 -43.9535 -43.8987
   -41.0878 -41.0175 -41.0080 -41.0011 -40.9435 -40.9295 -40.9207 -40.9162
   -40.8850 -40.8679 -40.8519 -40.8409 -40.8299 -40.8274 -40.8215 -40.7910
   -40.7830 -40.7722 -40.7579 -40.7445 -40.7222 -40.7172 -40.7010 -40.7000
   -40.6933 -40.6899 -40.6841 -40.6839 -40.6820 -40.6807 -40.6749 -40.6734
   -40.6489 -40.6286 -40.6130 -40.6030 -40.5908 -40.5856 -40.5670 -40.5580
   -40.5537 -40.5402 -40.5386 -40.5362 -40.5290 -40.5270 -40.5161 -40.5152
   -40.5109 -40.5096 -40.5060 -40.5057 -40.5047 -40.4966 -40.4944 -40.4864
   -40.4854 -40.4725 -40.4128 -40.3711 -40.3376 -40.3265 -40.3229 -40.2916
   -40.2897 -40.2708 -40.2619 -40.2449 -40.1841 -40.0856 -40.0690 -40.0018
   -39.9733 -39.9460 -39.7620 -39.7251 -39.7182 -39.6956 -39.6314 -39.5842
   -39.5282 -39.5167 -39.4705 -39.4507 -28.2542 -27.7877 -27.7170 -27.6162
   -27.5724 -27.5687 -27.4876 -27.4822 -27.4701 -27.4078 -27.3993 -27.3413
   -27.3147 -27.2859 -27.2826 -27.2794 -27.2637 -27.2614 -27.2385 -27.1790
   -27.1711 -27.1492 -27.1381 -27.1002 -27.0910 -27.0728 -27.0653 -27.0386
   -27.0348 -27.0109 -26.9412 -26.9321 -26.8927 -26.8766 -26.8203 -26.7774
   -23.1375 -23.1224 -23.0871 -23.0734 -23.0469 -23.0113 -22.9166 -22.9068
   -22.8937 -22.8908 -22.8842 -22.8636 -22.8543 -22.8504 -22.8426 -22.8387
   -22.8273 -22.8028 -22.7796 -22.7777 -22.7718 -22.7689 -22.7527 -22.7519
   -22.7442 -22.7426 -22.7217 -22.7183 -22.7114 -22.7084 -22.6682 -22.6571
   -22.6564 -22.6557 -22.6545 -22.6412 -22.6321 -22.6277 -22.6235 -22.6102
   -22.5985 -22.5968 -22.5926 -22.5808 -22.5690 -22.5593 -22.5552 -22.5469
   -22.5450 -22.5405 -22.5327 -22.5275 -22.5244 -22.5201 -22.4970 -22.4952
   -22.4942 -22.4896 -22.4868 -22.4609 -22.4609 -22.4570 -22.4483 -22.4116
   -22.3732 -22.3662 -22.2275 -22.2184 -22.1819 -22.1537 -22.1408 -22.1348
   -14.8550 -14.7988 -14.5684 -14.3206 -14.3003 -14.2744 -14.2301 -14.2018
   -14.1896 -14.1611 -14.1268 -14.1117 -14.1001 -14.0964 -14.0508 -14.0299
   -14.0184 -14.0153 -13.9905 -13.9667 -13.9585 -13.9473 -13.9164 -13.9032
   -13.8973 -13.8793 -13.8591 -13.8491 -13.8321 -13.8253 -13.8164 -13.8068
   -13.8024 -13.7815 -13.7766 -13.7524 -13.7493 -13.7321 -13.7182 -13.6918
   -13.6775 -13.6658 -13.6522 -13.6360 -13.6273 -13.6245 -13.6110 -13.6008
   -13.5849 -13.5740 -13.5642 -13.5478 -13.5440 -13.5357 -13.5260 -13.5169
   -13.5005 -13.4898 -13.4749 -13.4660 -13.4621 -13.4364 -13.4206 -13.4056
   -13.4016 -13.3924 -13.3860 -13.3809 -13.3708 -13.3662 -13.3542 -13.3442
   -13.3380 -13.3209 -13.3186 -13.3004 -13.2953 -13.2888 -13.2700 -13.2592
   -13.2468 -13.2367 -13.2263 -13.2170 -13.2004 -13.1932 -13.1925 -13.1768
   -13.1683 -13.1479 -13.1433 -13.1331 -13.1270 -13.1210 -13.1062 -13.0947
   -13.0807 -13.0752 -13.0646 -13.0579 -13.0548 -13.0429 -13.0319 -13.0065
   -12.9912 -12.9825 -12.9775 -12.9619 -12.9529 -12.9418 -12.9143 -12.9072
   -12.9038 -12.8887 -12.8838 -12.8629 -12.8546 -12.8484 -12.8362 -12.8131
   -12.7942 -12.7895 -12.7691 -12.7599 -12.7447 -12.7325 -12.7206 -12.7020
   -12.6645 -12.6519 -12.6362 -12.6195 -12.5873 -12.5704 -12.5591 -12.5234
   -12.5034 -12.4729 -12.4631 -12.3879 -12.3358 -12.2806 -12.1249 -11.8595
   -11.4564 -11.3087 -11.2899 -11.1913 -11.1282 -11.1195 -11.1027 -11.0276
   -10.9796 -10.9634 -10.9378 -10.9202 -10.9143 -10.9020 -10.8987 -10.8853
   -10.8580 -10.8333 -10.8304 -10.8227 -10.8091 -10.7947 -10.7789 -10.7712
   -10.7661 -10.7564 -10.7405 -10.7328 -10.7284 -10.7108 -10.6988 -10.6904
   -10.6887 -10.6819 -10.6783 -10.6631 -10.6509 -10.6412 -10.6264 -10.6156
   -10.6121 -10.5978 -10.5882 -10.5759 -10.5677 -10.5553 -10.5435 -10.5408
   -10.5271 -10.5221 -10.5118 -10.4968 -10.4861 -10.4708 -10.4686 -10.4541
   -10.4406 -10.4278 -10.4178 -10.4093 -10.3880 -10.3673 -10.3539 -10.3348
   -10.3194 -10.3064 -10.3017 -10.2775 -10.2696 -10.2595 -10.2506 -10.2214
   -10.2145 -10.2094 -10.1931 -10.1841 -10.1753 -10.1641 -10.1512 -10.1390
   -10.1152 -10.1092 -10.0988 -10.0920 -10.0709 -10.0653 -10.0560 -10.0198
   -10.0110 -10.0063  -9.9948  -9.9683  -9.9481  -9.9305  -9.9205  -9.9027
    -9.8691  -9.8631  -9.8365  -9.8192  -9.8063  -9.7846  -9.7506  -9.7208
    -9.6441  -9.5754  -9.4006  -9.3556  -1.0822  -1.0033  -0.8636  -0.8508
    -0.8157  -0.7904  -0.7669  -0.7428  -0.7226  -0.7060  -0.7017  -0.6642
    -0.6482  -0.6462  -0.6181  -0.6024  -0.5708  -0.5620  -0.5471  -0.5341
    -0.5208  -0.4900  -0.4827  -0.4756  -0.4560  -0.4497  -0.4413  -0.4079
    -0.4047  -0.3937  -0.3784  -0.3765  -0.3661  -0.3518  -0.3449  -0.3383
    -0.3202  -0.3154  -0.2998  -0.2946  -0.2793  -0.2706  -0.2663  -0.2521
    -0.2359  -0.2287  -0.2138  -0.1959  -0.1912  -0.1871  -0.1744  -0.1712
    -0.1682  -0.1559  -0.1412  -0.1333  -0.1282  -0.1247  -0.1118  -0.1054
    -0.0966  -0.0937  -0.0851  -0.0739  -0.0706  -0.0630  -0.0529  -0.0516
    -0.0387  -0.0317  -0.0230  -0.0145  -0.0099  -0.0037   0.0014   0.0136
     0.0162   0.0270   0.0401   0.0467   0.0502   0.0575   0.0642   0.0683
     0.0731   0.0891   0.0919   0.1062   0.1091   0.1107   0.1163   0.1236
     0.1283   0.1377   0.1409   0.1483   0.1552   0.1604   0.1672   0.1747
     0.1811   0.1873   0.1939   0.1960   0.2093   0.2129   0.2212   0.2294
     0.2353   0.2480   0.2519   0.2610   0.2620   0.2695   0.2763   0.2855
     0.2932   0.3013   0.3019   0.3115   0.3166   0.3243   0.3325   0.3404
     0.3455   0.3491   0.3532   0.3675   0.3733   0.3779   0.3808   0.3932
     0.3976   0.4056   0.4080   0.4106   0.4229   0.4341   0.4384   0.4450
     0.4484   0.4579   0.4649   0.4708   0.4770   0.4792   0.4972   0.5088
     0.5148   0.5166   0.5185   0.5288   0.5376   0.5417   0.5493   0.5502
     0.5642   0.5773   0.5878   0.5904   0.5980   0.6027   0.6130   0.6271
     0.6331   0.6458   0.6501   0.6592   0.6667   0.6753   0.6770   0.6853
     0.6937   0.6994   0.7084   0.7167   0.7292   0.7332   0.7372   0.7461
     0.7591   0.7601   0.7702   0.7822   0.7900   0.8107   0.8142   0.8210
     0.8284   0.8391   0.8487   0.8598   0.8629   0.8756   0.8815   0.8874
     0.9000   0.9113   0.9199   0.9255   0.9304   0.9443   0.9554   0.9630
     0.9709   0.9732   0.9825   0.9931   0.9990   1.0173   1.0246   1.0323
     1.0397   1.0424   1.0454   1.0632   1.0679   1.0769   1.0843   1.0862
     1.0975   1.1087   1.1225   1.1365   1.1393   1.1427   1.1513   1.1606
     1.1616   1.1764   1.1849   1.1880   1.1929   1.2077   1.2203   1.2262
     1.2291   1.2394   1.2464   1.2556   1.2662   1.2792   1.2851   1.2946
     1.3021   1.3117   1.3179   1.3243   1.3318   1.3373   1.3459   1.3579
     1.3633   1.3667   1.3803   1.3859   1.3949   1.3995   1.4112   1.4183
     1.4221   1.4375   1.4401   1.4458   1.4495   1.4619   1.4687   1.4795
     1.4807   1.4847   1.4933   1.4996   1.5071   1.5136   1.5267   1.5284
     1.5426   1.5442   1.5488   1.5587   1.5685   1.5779   1.5821   1.5875
     1.5908   1.5949   1.6039   1.6195   1.6233   1.6288   1.6336   1.6465
     1.6540   1.6688   1.6709   1.6739   1.6867   1.6923   1.6986   1.7058
     1.7088   1.7199   1.7221   1.7294   1.7316   1.7415   1.7459   1.7469
     1.7583   1.7633   1.7678   1.7744   1.7788   1.7846   1.7910   1.7991
     1.8057   1.8173   1.8193   1.8265   1.8328   1.8374   1.8376   1.8451
     1.8499   1.8522   1.8616   1.8684   1.8742   1.8797   1.8932   1.8961
     1.9063   1.9089   1.9129   1.9182   1.9225   1.9286   1.9432   1.9457
     1.9556   1.9623   1.9695   1.9767   1.9821   1.9846   1.9873   2.0030
     2.0051   2.0082   2.0134   2.0178   2.0246   2.0280   2.0339   2.0369
     2.0505   2.0516   2.0588   2.0708   2.0743   2.0806   2.0841   2.0916
     2.0966   2.1013   2.1086   2.1168   2.1226   2.1250   2.1374   2.1396
     2.1469   2.1523   2.1568   2.1597   2.1689   2.1737   2.1826   2.1855
     2.2013   2.2050   2.2076   2.2195   2.2243   2.2271   2.2354   2.2405
     2.2498   2.2584   2.2690   2.2756   2.2846   2.2883   2.3021   2.3071
     2.3101   2.3127   2.3287   2.3381   2.3441   2.3536   2.3564   2.3622
     2.3691   2.3839   2.3916   2.3945   2.4113   2.4227   2.4296   2.4418
     2.4458   2.4501   2.4557   2.4742   2.4901   2.5059   2.5185   2.5332
     2.5447   2.5589   2.5732   2.5808   2.5989   2.6145   2.6555   2.6758
     2.7247   2.7629   2.8358   2.8664   5.2171   6.0758   6.0792   6.1830
     6.2474   6.2948   6.3305   6.4041   6.4669   6.5146   6.5908   6.6041
     6.6197   6.6649   6.6856   6.6968   6.7018   6.7086   6.7455   6.7463
     6.7633   6.7697   6.7830   6.7876   6.7966   6.8049   6.8227   6.8276
     6.8400   6.8441   6.8472   6.8632   6.8751   6.8816   6.8861   6.9004
     6.9127   6.9183   6.9298   6.9347   6.9424   6.9488   6.9537   6.9620
     6.9659   6.9741   6.9829   6.9877   6.9923   6.9986   7.0039   7.0119
     7.0139   7.0207   7.0306   7.0387   7.0419   7.0529   7.0553   7.0593
     7.0697   7.0737   7.0822   7.0851   7.0931   7.0992   7.1003   7.1058
     7.1078   7.1117   7.1210   7.1246   7.1259   7.1284   7.1366   7.1431
     7.1455   7.1502   7.1572   7.1600   7.1635   7.1676   7.1707   7.1791
     7.1824   7.1840   7.1939   7.1997   7.2071   7.2177   7.2206   7.2233
     7.2277   7.2313   7.2350   7.2379   7.2405   7.2418   7.2494   7.2567
     7.2624   7.2642   7.2653   7.2671   7.2750   7.2761   7.2826   7.2838
     7.2907   7.2945   7.3008   7.3018   7.3069   7.3105   7.3154   7.3261
     7.3293   7.3331   7.3399   7.3427   7.3462   7.3492   7.3521   7.3564
     7.3614   7.3702   7.3708   7.3740   7.3748   7.3834   7.3838   7.3946
     7.3991   7.4010   7.4030   7.4049   7.4065   7.4109   7.4156   7.4165
     7.4238   7.4290   7.4314   7.4349   7.4452   7.4465   7.4513   7.4570
     7.4602   7.4642   7.4659   7.4675   7.4720   7.4734   7.4759   7.4769
     7.4839   7.4858   7.4881   7.4915   7.4953   7.4966   7.4998   7.5039
     7.5049   7.5162   7.5194   7.5219   7.5271   7.5308   7.5338   7.5383
     7.5419   7.5479   7.5507   7.5552   7.5570   7.5612   7.5632   7.5717

     the Fermi energy is     4.2933 ev

!    total energy              =  -10980.26746448 Ry
     estimated scf accuracy    <          5.3E-10 Ry
     smearing contrib. (-TS)   =       0.00000000 Ry
     internal energy E=F+TS    =  -10980.26746448 Ry

     The total energy is F=E-TS. E is the sum of the following terms:
     one-electron contribution = -262689.10911336 Ry
     hartree contribution      =  131920.15397322 Ry
     xc contribution           =   -2580.51520250 Ry
     ewald contribution        =  122369.21816276 Ry
     electric field correction =      -0.01528460 Ry

     convergence has been achieved in  27 iterations

     Forces acting on atoms (cartesian axes, Ry/au):

     atom    1 type  1   force =    -0.00093875   -0.00038383   -0.00205330
     atom    2 type  1   force =     0.00007020   -0.00092776   -0.00222474
     atom    3 type  1   force =     0.00102452   -0.00020702   -0.00218136
     atom    4 type  1   force =     0.00045647    0.00059197   -0.00145376
     atom    5 type  1   force =    -0.00044411    0.00021666   -0.00141330
     atom    6 type  1   force =    -0.00058669   -0.00035067   -0.00092748
     atom    7 type  1   force =     0.00048477    0.00013842   -0.00091396
     atom    8 type  1   force =    -0.00047864   -0.00013516   -0.00054862
     atom    9 type  1   force =     0.00023799    0.00017981   -0.00093293
     atom   10 type  1   force =    -0.00024909    0.00002783   -0.00103652
     atom   11 type  1   force =     0.00028434    0.00016127   -0.00173164
     atom   12 type  1   force =     0.00016027   -0.00062657   -0.00125256
     atom   13 type  1   force =    -0.00026609    0.00019330   -0.00109293
     atom   14 type  1   force =    -0.00051255    0.00031046   -0.00087212
     atom   15 type  1   force =     0.00051675   -0.00028826   -0.00115907
     atom   16 type  1   force =     0.00033576    0.00053066   -0.00092987
     atom   17 type  1   force =    -0.00081766   -0.00021183   -0.00087276
     atom   18 type  1   force =     0.00002085   -0.00010398   -0.00109585
     atom   19 type  1   force =     0.00011544   -0.00050627   -0.00156554
     atom   20 type  1   force =     0.00010501    0.00068038   -0.00131994
     atom   21 type  1   force =     0.00011359   -0.00063965   -0.00118080
     atom   22 type  1   force =     0.00007796    0.00043947   -0.00054480
     atom   23 type  1   force =    -0.00031609   -0.00034849   -0.00076997
     atom   24 type  1   force =    -0.00024690    0.00023378   -0.00058013
     atom   25 type  1   force =    -0.00010094   -0.00007127   -0.00115042
     atom   26 type  1   force =     0.00065677    0.00022240   -0.00158864
     atom   27 type  1   force =    -0.00053714    0.00048906   -0.00085650
     atom   28 type  1   force =    -0.00056218   -0.00026792   -0.00124840
     atom   29 type  1   force =    -0.00024396   -0.00068395   -0.00090319
     atom   30 type  1   force =     0.00031066   -0.00046265   -0.00135991
     atom   31 type  1   force =     0.00017692    0.00070034   -0.00062796
     atom   32 type  1   force =    -0.00017046    0.00003185   -0.00093620
     atom   33 type  1   force =     0.00031365   -0.00006497   -0.00176616
     atom   34 type  1   force =    -0.00049751   -0.00058364   -0.00123553
     atom   35 type  1   force =     0.00054188    0.00027094   -0.00143896
     atom   36 type  1   force =    -0.00057757   -0.00008163   -0.00069513
     atom   37 type  1   force =     0.00028694    0.00037323   -0.00078698
     atom   38 type  1   force =    -0.00038808    0.00011411   -0.00048757
     atom   39 type  1   force =     0.00005284    0.00014103   -0.00102343
     atom   40 type  1   force =     0.00018536   -0.00079359   -0.00144416
     atom   41 type  1   force =     0.00008509    0.00073534   -0.00115311
     atom   42 type  1   force =    -0.00054453    0.00039514   -0.00078839
     atom   43 type  1   force =     0.00063225   -0.00019385   -0.00136835
     atom   44 type  1   force =     0.00054097    0.00050803   -0.00098143
     atom   45 type  1   force =    -0.00083913   -0.00024406   -0.00086020
     atom   46 type  1   force =    -0.00013007    0.00007599   -0.00090048
     atom   47 type  1   force =     0.00013625   -0.00048906   -0.00177704
     atom   48 type  1   force =     0.00021031    0.00060934   -0.00116247
     atom   49 type  1   force =     0.00009412   -0.00076590   -0.00112821
     atom   50 type  1   force =     0.00010203    0.00044831   -0.00050310
     atom   51 type  1   force =    -0.00046514   -0.00044189   -0.00071167
     atom   52 type  1   force =    -0.00028283    0.00029149   -0.00056770
     atom   53 type  1   force =    -0.00013594   -0.00011192   -0.00110272
     atom   54 type  1   force =     0.00061369    0.00033547   -0.00195290
     atom   55 type  1   force =    -0.00044761    0.00042820   -0.00080043
     atom   56 type  1   force =    -0.00048346   -0.00027014   -0.00130051
     atom   57 type  1   force =    -0.00029120   -0.00058791   -0.00091278
     atom   58 type  1   force =     0.00044314   -0.00048558   -0.00139035
     atom   59 type  1   force =     0.00019083    0.00064034   -0.00071068
     atom   60 type  1   force =    -0.00014604    0.00009888   -0.00098911
     atom   61 type  1   force =     0.00028581    0.00001828   -0.00155436
     atom   62 type  1   force =    -0.00055163   -0.00061304   -0.00138270
     atom   63 type  1   force =     0.00068304    0.00030028   -0.00142204
     atom   64 type  1   force =    -0.00052887   -0.00022005   -0.00082442
     atom   65 type  1   force =     0.00011277    0.00053532   -0.00074367
     atom   66 type  1   force =    -0.00056315    0.00013959   -0.00042595
     atom   67 type  1   force =     0.00009746   -0.00010431   -0.00092152
     atom   68 type  1   force =     0.00037866   -0.00082152   -0.00137231
     atom   69 type  1   force =     0.00001994    0.00054694   -0.00117204
     atom   70 type  1   force =    -0.00059043    0.00029674   -0.00070076
     atom   71 type  1   force =    -0.00007740    0.00024421   -0.00099001
     atom   72 type  1   force =     0.00082160    0.00056610   -0.00087925
     atom   73 type  1   force =    -0.00073867   -0.00061505   -0.00052078
     atom   74 type  1   force =    -0.00012372   -0.00002997   -0.00093558
     atom   75 type  1   force =     0.00042600   -0.00040188   -0.00176973
     atom   76 type  1   force =    -0.00010968    0.00009375   -0.00104470
     atom   77 type  1   force =     0.00054326   -0.00050587   -0.00144557
     atom   78 type  1   force =    -0.00087312    0.00085895   -0.00098113
     atom   79 type  1   force =     0.00042899   -0.00043396   -0.00094680
     atom   80 type  1   force =     0.00066858   -0.00041870   -0.00025838
     atom   81 type  1   force =     0.00006616    0.00030834   -0.00081147
     atom   82 type  1   force =     0.00038342    0.00078932   -0.00056457
     atom   83 type  1   force =    -0.00006817   -0.00044885   -0.00071932
     atom   84 type  1   force =    -0.00083388   -0.00114914   -0.00080439
     atom   85 type  2   force =     0.00134560    0.00185064   -0.01122924
     atom   86 type  2   force =     0.00194435   -0.00244077   -0.00459813
     atom   87 type  2   force =    -0.00268563    0.00186559   -0.00745820
     atom   88 type  2   force =    -0.00012736   -0.00114125   -0.00250915
     atom   89 type  2   force =     0.00070818    0.00165020   -0.00160198
     atom   90 type  2   force =    -0.00081496    0.00004288   -0.00497645
     atom   91 type  2   force =     0.00032992   -0.00094931   -0.00434091
     atom   92 type  2   force =     0.00038005   -0.00056384   -0.00212903
     atom   93 type  2   force =    -0.00045261    0.00014792   -0.00342817
     atom   94 type  2   force =    -0.00087132    0.00020014   -0.00256115
     atom   95 type  2   force =     0.00028697    0.00034273   -0.00375932
     atom   96 type  2   force =     0.00070522    0.00071059   -0.00423616
     atom   97 type  2   force =     0.00028091    0.00045786   -0.00373989
     atom   98 type  2   force =    -0.00005393   -0.00027676   -0.00362217
     atom   99 type  2   force =     0.00031079    0.00007704   -0.00423714
     atom  100 type  2   force =    -0.00025952    0.00059773   -0.00307221
     atom  101 type  2   force =    -0.00017430   -0.00020510   -0.00372522
     atom  102 type  2   force =    -0.00044399   -0.00028396   -0.00429232
     atom  103 type  2   force =    -0.00076282   -0.00086856   -0.00349898
     atom  104 type  2   force =     0.00060244   -0.00006792   -0.00346865
     atom  105 type  2   force =    -0.00015688   -0.00012285   -0.00437321
     atom  106 type  2   force =    -0.00097039    0.00009555   -0.00263526
     atom  107 type  2   force =     0.00022504    0.00005478   -0.00325757
     atom  108 type  2   force =     0.00037060    0.00068366   -0.00451891
     atom  109 type  2   force =     0.00031272    0.00043244   -0.00321172
     atom  110 type  2   force =     0.00031278   -0.00039962   -0.00299847
     atom  111 type  2   force =     0.00013104    0.00028065   -0.00465218
     atom  112 type  2   force =    -0.00002357    0.00055186   -0.00452235
     atom  113 type  2   force =     0.00061833   -0.00038767   -0.00415560
     atom  114 type  2   force =     0.00063142   -0.00114131   -0.00249331
     atom  115 type  2   force =    -0.00127487   -0.00017442   -0.00277991
     atom  116 type  2   force =    -0.00006141   -0.00076231   -0.00317942
     atom  117 type  2   force =    -0.00056736   -0.00027611   -0.00270921
     atom  118 type  2   force =    -0.00037163   -0.00345069    0.00066375
     atom  119 type  2   force =    -0.00198809    0.00154139   -0.00108485
     atom  120 type  2   force =    -0.00052163    0.00031094    0.00319499
     atom  121 type  3   force =     0.01014022   -0.00051973   -0.01121589
     atom  122 type  3   force =    -0.00447999    0.00404410   -0.01219884
     atom  123 type  3   force =     0.00753809   -0.00129319   -0.00694149
     atom  124 type  3   force =    -0.00854451   -0.00304142   -0.00686192
     atom  125 type  3   force =    -0.00067456    0.00039113   -0.00572972
     atom  126 type  3   force =     0.00120473   -0.00163396   -0.00526843
     atom  127 type  3   force =     0.00036209    0.00047113   -0.00365255
     atom  128 type  3   force =    -0.00125605    0.00270958   -0.00389544
     atom  129 type  3   force =    -0.00026661   -0.00092164   -0.00419346
     atom  130 type  3   force =    -0.00009876    0.00075284   -0.00365739
     atom  131 type  3   force =    -0.00142377   -0.00123087   -0.00478218
     atom  132 type  3   force =     0.00031500    0.00086973   -0.00423938
     atom  133 type  3   force =    -0.00025746   -0.00110273   -0.00566842
     atom  134 type  3   force =     0.00106540    0.00004348   -0.00547144
     atom  135 type  3   force =     0.00067496   -0.00043543   -0.00382084
     atom  136 type  3   force =    -0.00057626   -0.00031404   -0.00339101
     atom  137 type  3   force =     0.00219444   -0.00037053   -0.00276660
     atom  138 type  3   force =     0.00024743    0.00003544   -0.00328860
     atom  139 type  3   force =    -0.00131087   -0.00091720   -0.00604431
     atom  140 type  3   force =     0.00067377    0.00144267   -0.00500121
     atom  141 type  3   force =    -0.00710037    0.00855020    0.01114371
     atom  142 type  3   force =     0.00397028   -0.00144824    0.01207020
     atom  143 type  3   force =     0.00223253    0.00763782   -0.00014046
     atom  144 type  3   force =    -0.00222295   -0.00479487   -0.00041050
     atom  145 type  4   force =     0.00402160   -0.00319564    0.00869716
     atom  146 type  4   force =    -0.00556059    0.00109659    0.00628280
     atom  147 type  4   force =     0.00839606   -0.00124265    0.00762875
     atom  148 type  4   force =    -0.00847789    0.00453680    0.00997672
     atom  149 type  4   force =     0.00321471   -0.00591464    0.00496644
     atom  150 type  4   force =    -0.00326078    0.01040742    0.00699812
     atom  151 type  4   force =    -0.01133056    0.01120297    0.00624463
     atom  152 type  4   force =     0.00858384   -0.01077331    0.00446269
     atom  153 type  4   force =    -0.00929298   -0.01287770    0.00296975
     atom  154 type  4   force =     0.00447896    0.00566315    0.00262427
     atom  155 type  4   force =     0.00382597   -0.00110433    0.00625672
     atom  156 type  4   force =    -0.00312881    0.00078056    0.00538705
     atom  157 type  4   force =     0.00923257    0.00665590    0.00476620
     atom  158 type  4   force =    -0.00855055   -0.00461005   -0.00025569
     atom  159 type  4   force =    -0.00409309   -0.00264830    0.00167806
     atom  160 type  4   force =     0.00399825    0.00209973    0.00093845
     atom  161 type  4   force =     0.00336526   -0.00062165    0.00485796
     atom  162 type  4   force =    -0.00287640    0.00035306    0.00286317
     atom  163 type  4   force =     0.00103124   -0.00231241   -0.00191198
     atom  164 type  4   force =    -0.00042804    0.00184181   -0.00076532
     atom  165 type  4   force =     0.00389430   -0.00010278   -0.00032830
     atom  166 type  4   force =    -0.00301168    0.00097952   -0.00074446
     atom  167 type  4   force =     0.00217649   -0.00091381   -0.00255323
     atom  168 type  4   force =    -0.00079644    0.00090718   -0.00253047
     atom  169 type  4   force =     0.00296312   -0.00122478    0.00876482
     atom  170 type  4   force =    -0.00301177    0.00231597    0.01011689
     atom  171 type  4   force =     0.00170576   -0.00523377    0.00823151
     atom  172 type  4   force =    -0.00185665    0.00580048    0.00678099
     atom  173 type  4   force =     0.00637280   -0.00041022    0.00617542
     atom  174 type  4   force =    -0.00724477    0.00094572    0.00713238
     atom  175 type  4   force =     0.00549270   -0.00357601    0.00464746
     atom  176 type  4   force =    -0.00507533    0.00380788    0.00358609
     atom  177 type  4   force =     0.00178504    0.00580181    0.00428335
     atom  178 type  4   force =    -0.00244142   -0.00774061    0.00432311
     atom  179 type  4   force =    -0.00152200   -0.00514562    0.00366194
     atom  180 type  4   force =     0.00149780    0.00635669    0.00427417
     atom  181 type  4   force =    -0.00250516   -0.00705051    0.00040447
     atom  182 type  4   force =     0.00323074    0.00687118   -0.00044214
     atom  183 type  4   force =     0.00239826    0.00558475   -0.00061508
     atom  184 type  4   force =    -0.00259924   -0.00627829   -0.00012805
     atom  185 type  4   force =    -0.00533768    0.00314200   -0.00045924
     atom  186 type  4   force =     0.00672478   -0.00465905   -0.00094169
     atom  187 type  4   force =     0.00449319   -0.00046877   -0.00162259
     atom  188 type  4   force =    -0.00485370    0.00012045   -0.00174314
     atom  189 type  4   force =     0.00196222   -0.00431594   -0.00220952
     atom  190 type  4   force =    -0.00105233    0.00401849   -0.00245344
     atom  191 type  4   force =     0.00241708   -0.00125841   -0.00363450
     atom  192 type  4   force =    -0.00208139    0.00067086   -0.00330006
     atom  193 type  4   force =     0.00151282   -0.00196075    0.00846478
     atom  194 type  4   force =    -0.00215176    0.00210753    0.00897441
     atom  195 type  4   force =     0.00549744   -0.00004796    0.00732618
     atom  196 type  4   force =    -0.00576964    0.00033663    0.00675056
     atom  197 type  4   force =     0.00238692   -0.00519134    0.00628268
     atom  198 type  4   force =    -0.00263213    0.00542652    0.00678874
     atom  199 type  4   force =    -0.00665703    0.00400584    0.00505723
     atom  200 type  4   force =     0.00515459   -0.00428774    0.00463452
     atom  201 type  4   force =    -0.00537217   -0.00425697    0.00400199
     atom  202 type  4   force =     0.00526722    0.00418960    0.00423827
     atom  203 type  4   force =     0.00658646    0.00515174    0.00423209
     atom  204 type  4   force =    -0.00620330   -0.00462429    0.00370116
     atom  205 type  4   force =     0.00546480    0.00397171    0.00041157
     atom  206 type  4   force =    -0.00494441   -0.00380506    0.00036347
     atom  207 type  4   force =    -0.00539255   -0.00479442    0.00016585
     atom  208 type  4   force =     0.00546496    0.00504994    0.00014956
     atom  209 type  4   force =     0.00517774   -0.00370644   -0.00000055
     atom  210 type  4   force =    -0.00461346    0.00370316   -0.00028324
     atom  211 type  4   force =     0.00223291   -0.00510371   -0.00228491
     atom  212 type  4   force =    -0.00172197    0.00446563   -0.00128415
     atom  213 type  4   force =     0.00516399   -0.00073212   -0.00299315
     atom  214 type  4   force =    -0.00426938    0.00009774   -0.00239625
     atom  215 type  4   force =     0.00232415   -0.00208636   -0.00449714
     atom  216 type  4   force =    -0.00132232    0.00183654   -0.00354188
     atom  217 type  4   force =     0.00279503   -0.00072284    0.00896533
     atom  218 type  4   force =    -0.00289111    0.00203486    0.01014950
     atom  219 type  4   force =     0.00152035   -0.00470019    0.00664966
     atom  220 type  4   force =    -0.00263593    0.00559215    0.00718097
     atom  221 type  4   force =     0.00567040   -0.00035871    0.00606650
     atom  222 type  4   force =    -0.00650114    0.00112535    0.00728697
     atom  223 type  4   force =     0.00518891   -0.00360969    0.00431448
     atom  224 type  4   force =    -0.00545643    0.00415565    0.00418505
     atom  225 type  4   force =     0.00280402    0.00698885    0.00402603
     atom  226 type  4   force =    -0.00227415   -0.00700122    0.00427491
     atom  227 type  4   force =    -0.00236848   -0.00687519    0.00385633
     atom  228 type  4   force =     0.00243038    0.00717417    0.00355800
     atom  229 type  4   force =    -0.00224638   -0.00633648    0.00022074
     atom  230 type  4   force =     0.00270395    0.00671441   -0.00015126
     atom  231 type  4   force =     0.00249491    0.00598624    0.00014146
     atom  232 type  4   force =    -0.00260218   -0.00619120    0.00018151
     atom  233 type  4   force =    -0.00572154    0.00320553   -0.00042721
     atom  234 type  4   force =     0.00606443   -0.00408760   -0.00041213
     atom  235 type  4   force =     0.00497131   -0.00031441   -0.00185376
     atom  236 type  4   force =    -0.00491545    0.00031600   -0.00144554
     atom  237 type  4   force =     0.00212965   -0.00452578   -0.00231910
     atom  238 type  4   force =    -0.00161946    0.00420860   -0.00267199
     atom  239 type  4   force =     0.00232173   -0.00118104   -0.00352283
     atom  240 type  4   force =    -0.00207058    0.00076873   -0.00316875
     atom  241 type  4   force =     0.00198078   -0.00232858    0.00924298
     atom  242 type  4   force =    -0.00266943    0.00259290    0.00972086
     atom  243 type  4   force =     0.00487929    0.00029828    0.00625181
     atom  244 type  4   force =    -0.00557972    0.00080950    0.00664589
     atom  245 type  4   force =     0.00236795   -0.00580702    0.00637694
     atom  246 type  4   force =    -0.00255701    0.00554532    0.00667558
     atom  247 type  4   force =    -0.00628505    0.00458598    0.00553292
     atom  248 type  4   force =     0.00480861   -0.00411005    0.00453420
     atom  249 type  4   force =    -0.00520891   -0.00441681    0.00414792
     atom  250 type  4   force =     0.00524582    0.00430737    0.00481051
     atom  251 type  4   force =     0.00638636    0.00514870    0.00402092
     atom  252 type  4   force =    -0.00656220   -0.00517695    0.00324078
     atom  253 type  4   force =     0.00586904    0.00366522    0.00004340
     atom  254 type  4   force =    -0.00501927   -0.00364851    0.00020850
     atom  255 type  4   force =    -0.00585356   -0.00489405    0.00006769
     atom  256 type  4   force =     0.00481180    0.00372044   -0.00066236
     atom  257 type  4   force =     0.00559616   -0.00362405    0.00003999
     atom  258 type  4   force =    -0.00489886    0.00394480   -0.00091937
     atom  259 type  4   force =     0.00234510   -0.00451597   -0.00226783
     atom  260 type  4   force =    -0.00156121    0.00401262   -0.00167055
     atom  261 type  4   force =     0.00512344   -0.00039364   -0.00270082
     atom  262 type  4   force =    -0.00489448    0.00008756   -0.00366831
     atom  263 type  4   force =     0.00231241   -0.00170213   -0.00496457
     atom  264 type  4   force =    -0.00122605    0.00139573   -0.00292014
     atom  265 type  4   force =    -0.00035395   -0.00085163    0.00497369
     atom  266 type  4   force =     0.00031894    0.00128130    0.00472963
     atom  267 type  4   force =     0.00154225   -0.00353109    0.00542481
     atom  268 type  4   force =    -0.00181897    0.00460556    0.00537030
     atom  269 type  4   force =     0.00227809    0.00064648    0.00526123
     atom  270 type  4   force =    -0.00352857    0.00025973    0.00614928
     atom  271 type  4   force =     0.00323156   -0.00328146    0.00277248
     atom  272 type  4   force =    -0.00554057    0.00403929    0.00269002
     atom  273 type  4   force =     0.00275084    0.00876043    0.00542760
     atom  274 type  4   force =    -0.00401464   -0.00943194    0.00383774
     atom  275 type  4   force =    -0.00070721   -0.00335118    0.00342709
     atom  276 type  4   force =     0.00287431    0.00454172    0.00194174
     atom  277 type  4   force =    -0.00525988   -0.00823768    0.00169370
     atom  278 type  4   force =     0.00407621    0.00720083   -0.00003240
     atom  279 type  4   force =    -0.00215208    0.00244504    0.00072707
     atom  280 type  4   force =     0.00011458   -0.00663781   -0.00241345
     atom  281 type  4   force =    -0.00408350    0.00530276   -0.00176125
     atom  282 type  4   force =     0.00648257   -0.00580700   -0.00323186
     atom  283 type  4   force =     0.00824542    0.00131051   -0.00237558
     atom  284 type  4   force =    -0.00606356    0.00134720   -0.00154061
     atom  285 type  4   force =     0.00717817   -0.00578610   -0.00551050
     atom  286 type  4   force =    -0.00285287    0.00726520   -0.00473490
     atom  287 type  4   force =     0.01323809   -0.00569406   -0.01252773
     atom  288 type  4   force =    -0.01027099   -0.00181209   -0.01369425
     The non-local contrib.  to forces
[...]
     atom   55 type  1   force =     0.00000111   -0.00000100    0.00000080
     atom   56 type  1   force =    -0.00000083   -0.00000058    0.00000097
     atom   57 type  1   force =    -0.00000009   -0.00000104    0.00000073
     atom   58 type  1   force =    -0.00000076    0.00000087    0.00000058
     atom   59 type  1   force =    -0.00000005    0.00000089    0.00000068
     atom   60 type  1   force =     0.00000065   -0.00000070    0.00000040
     atom   61 type  1   force =    -0.00000009   -0.00000007    0.00000027
     atom   62 type  1   force =     0.00000046    0.00000031    0.00000056
     atom   63 type  1   force =    -0.00000067   -0.00000026   -0.00000018
     atom   64 type  1   force =    -0.00000089   -0.00000002   -0.00000045
     atom   65 type  1   force =     0.00000058    0.00000012    0.00000036
     atom   66 type  1   force =     0.00000043    0.00000032   -0.00000004
     atom   67 type  1   force =     0.00000090   -0.00000083    0.00000025
     atom   68 type  1   force =     0.00000017    0.00000085    0.00000044
     atom   69 type  1   force =     0.00000051   -0.00000054    0.00000015
     atom   70 type  1   force =     0.00000014    0.00000038   -0.00000048
     atom   71 type  1   force =     0.00000007   -0.00000020   -0.00000058
     atom   72 type  1   force =    -0.00000025   -0.00000008   -0.00000039
     atom   73 type  1   force =    -0.00000003    0.00000090    0.00000003
     atom   74 type  1   force =    -0.00000001   -0.00000021   -0.00000029
     atom   75 type  1   force =    -0.00000040    0.00000035   -0.00000024
     atom   76 type  1   force =     0.00000027   -0.00000051   -0.00000038
     atom   77 type  1   force =    -0.00000021    0.00000019   -0.00000053
     atom   78 type  1   force =     0.00000044    0.00000024   -0.00000041
     atom   79 type  1   force =    -0.00000011   -0.00000100   -0.00000117
     atom   80 type  1   force =    -0.00000033   -0.00000030   -0.00000088
     atom   81 type  1   force =     0.00000061   -0.00000056   -0.00000145
     atom   82 type  1   force =    -0.00000055    0.00000069   -0.00000069
     atom   83 type  1   force =    -0.00000094   -0.00000029   -0.00000075
     atom   84 type  1   force =     0.00000051    0.00000089   -0.00000057
     atom   85 type  2   force =     0.00000124   -0.00000042   -0.00000481
     atom   86 type  2   force =    -0.00000452    0.00000685    0.00000854
     atom   87 type  2   force =     0.00000218   -0.00000353    0.00001112
     atom   88 type  2   force =     0.00000021    0.00000477    0.00001578
     atom   89 type  2   force =    -0.00000062   -0.00000304    0.00001343
     atom   90 type  2   force =     0.00000116    0.00000165    0.00000578
     atom   91 type  2   force =    -0.00000161   -0.00000079    0.00001437
     atom   92 type  2   force =     0.00000414   -0.00000024    0.00001633
     atom   93 type  2   force =    -0.00000279   -0.00000267    0.00001633
     atom   94 type  2   force =    -0.00000105    0.00000012    0.00001250
     atom   95 type  2   force =     0.00000052    0.00000068    0.00001369
     atom   96 type  2   force =     0.00000004   -0.00000038    0.00000831
     atom   97 type  2   force =     0.00000043   -0.00000029    0.00001074
     atom   98 type  2   force =     0.00000003    0.00000095    0.00000887
     atom   99 type  2   force =    -0.00000078   -0.00000028    0.00000923
     atom  100 type  2   force =    -0.00000000   -0.00000202    0.00000681
     atom  101 type  2   force =    -0.00000061    0.00000207    0.00000694
     atom  102 type  2   force =     0.00000004    0.00000047    0.00000490
     atom  103 type  2   force =     0.00000062    0.00000045    0.00000967
     atom  104 type  2   force =     0.00000028   -0.00000104    0.00000921
     atom  105 type  2   force =    -0.00000133    0.00000267    0.00000892
     atom  106 type  2   force =    -0.00000063   -0.00000077    0.00000634
     atom  107 type  2   force =     0.00000188   -0.00000032    0.00000587
     atom  108 type  2   force =    -0.00000042    0.00000110    0.00000476
     atom  109 type  2   force =    -0.00000123    0.00000000    0.00000605
     atom  110 type  2   force =     0.00000091   -0.00000017   -0.00000086
     atom  111 type  2   force =    -0.00000037   -0.00000010    0.00000038
     atom  112 type  2   force =    -0.00000111   -0.00000039   -0.00000375
     atom  113 type  2   force =    -0.00000199   -0.00000140   -0.00000455
     atom  114 type  2   force =     0.00000128    0.00000182    0.00000223
     atom  115 type  2   force =    -0.00000307   -0.00000142   -0.00000123
     atom  116 type  2   force =    -0.00000036   -0.00000060   -0.00000563
     atom  117 type  2   force =     0.00000217    0.00000106   -0.00000441
     atom  118 type  2   force =     0.00000397    0.00000215   -0.00000552
     atom  119 type  2   force =    -0.00000232   -0.00000118   -0.00000414
     atom  120 type  2   force =     0.00000065    0.00000054   -0.00000076
     atom  121 type  3   force =    -0.00000626    0.00000548    0.00001639
     atom  122 type  3   force =     0.00000673   -0.00000160    0.00001211
     atom  123 type  3   force =     0.00000264   -0.00000765    0.00001500
     atom  124 type  3   force =    -0.00000623    0.00000058    0.00001138
     atom  125 type  3   force =    -0.00000301   -0.00000282    0.00001595
     atom  126 type  3   force =     0.00000256    0.00000212    0.00001427
     atom  127 type  3   force =     0.00000246   -0.00000109    0.00002046
     atom  128 type  3   force =    -0.00000065    0.00000180    0.00001951
     atom  129 type  3   force =    -0.00000094    0.00000128    0.00000804
     atom  130 type  3   force =     0.00000338   -0.00000036    0.00000781
     atom  131 type  3   force =     0.00000056   -0.00000110    0.00001219
     atom  132 type  3   force =    -0.00000076    0.00000023    0.00001358
     atom  133 type  3   force =    -0.00000122   -0.00000528    0.00000665
     atom  134 type  3   force =     0.00000058    0.00000492    0.00000724
     atom  135 type  3   force =     0.00000058   -0.00000436    0.00001074
     atom  136 type  3   force =     0.00000067    0.00000377    0.00000999
     atom  137 type  3   force =     0.00000606    0.00000058   -0.00000345
     atom  138 type  3   force =    -0.00000524    0.00000108   -0.00000604
     atom  139 type  3   force =    -0.00000090    0.00000272    0.00000416
     atom  140 type  3   force =     0.00000120   -0.00000232   -0.00000135
     atom  141 type  3   force =    -0.00000150    0.00000165   -0.00000091
     atom  142 type  3   force =    -0.00000764   -0.00000270   -0.00000644
     atom  143 type  3   force =     0.00000142   -0.00000058   -0.00000856
     atom  144 type  3   force =     0.00000386    0.00000100   -0.00000973
     atom  145 type  4   force =    -0.00000181   -0.00000039   -0.00000079
     atom  146 type  4   force =     0.00000175   -0.00000118   -0.00000029
     atom  147 type  4   force =    -0.00000101    0.00000147    0.00000453
     atom  148 type  4   force =     0.00000078    0.00000052    0.00000314
     atom  149 type  4   force =    -0.00000222    0.00000305    0.00000246
     atom  150 type  4   force =     0.00000188   -0.00000371    0.00000430
     atom  151 type  4   force =    -0.00000179    0.00000288    0.00000561
     atom  152 type  4   force =     0.00000081   -0.00000116    0.00000531
     atom  153 type  4   force =    -0.00000241    0.00000012    0.00000646
     atom  154 type  4   force =     0.00000367    0.00000139    0.00000480
     atom  155 type  4   force =     0.00000031   -0.00000343    0.00000462
     atom  156 type  4   force =     0.00000078    0.00000177    0.00000342
     atom  157 type  4   force =    -0.00000340   -0.00000150    0.00000364
     atom  158 type  4   force =     0.00000256   -0.00000048    0.00000627
     atom  159 type  4   force =     0.00000069   -0.00000188    0.00000528
     atom  160 type  4   force =     0.00000019    0.00000413    0.00000537
     atom  161 type  4   force =     0.00000111   -0.00000110    0.00000408
     atom  162 type  4   force =    -0.00000062    0.00000231    0.00000310
     atom  163 type  4   force =     0.00000022    0.00000172    0.00000875
     atom  164 type  4   force =    -0.00000002   -0.00000386    0.00000747
     atom  165 type  4   force =    -0.00000052    0.00000064    0.00000653
     atom  166 type  4   force =    -0.00000014    0.00000111    0.00000617
     atom  167 type  4   force =    -0.00000192    0.00000046    0.00000776
     atom  168 type  4   force =     0.00000124   -0.00000182    0.00000866
     atom  169 type  4   force =    -0.00000102   -0.00000077    0.00000556
     atom  170 type  4   force =    -0.00000037   -0.00000045    0.00000611
     atom  171 type  4   force =     0.00000032   -0.00000049    0.00000695
     atom  172 type  4   force =     0.00000094   -0.00000032    0.00000833
     atom  173 type  4   force =    -0.00000055    0.00000010    0.00000665
     atom  174 type  4   force =     0.00000023   -0.00000015    0.00000660
     atom  175 type  4   force =    -0.00000109    0.00000049    0.00000667
     atom  176 type  4   force =     0.00000134    0.00000029    0.00000610
     atom  177 type  4   force =    -0.00000138   -0.00000019    0.00000633
     atom  178 type  4   force =     0.00000151    0.00000139    0.00000634
     atom  179 type  4   force =     0.00000040   -0.00000008    0.00000773
     atom  180 type  4   force =    -0.00000100   -0.00000118    0.00000727
     atom  181 type  4   force =    -0.00000074    0.00000108    0.00000682
     atom  182 type  4   force =     0.00000052   -0.00000039    0.00000635
     atom  183 type  4   force =     0.00000018   -0.00000214    0.00000826
     atom  184 type  4   force =     0.00000013    0.00000133    0.00000735
     atom  185 type  4   force =     0.00000107   -0.00000141    0.00000752
     atom  186 type  4   force =    -0.00000051    0.00000108    0.00000758
     atom  187 type  4   force =    -0.00000010    0.00000148    0.00000675
     atom  188 type  4   force =    -0.00000054   -0.00000124    0.00000782
     atom  189 type  4   force =     0.00000002   -0.00000024    0.00000753
     atom  190 type  4   force =    -0.00000012    0.00000075    0.00000669
     atom  191 type  4   force =    -0.00000012   -0.00000107    0.00000633
     atom  192 type  4   force =     0.00000037    0.00000078    0.00000548
     atom  193 type  4   force =    -0.00000024    0.00000064    0.00000487
     atom  194 type  4   force =     0.00000047   -0.00000071    0.00000481
     atom  195 type  4   force =    -0.00000085    0.00000020    0.00000404
     atom  196 type  4   force =     0.00000051    0.00000058    0.00000398
     atom  197 type  4   force =    -0.00000087    0.00000048    0.00000478
     atom  198 type  4   force =     0.00000024   -0.00000068    0.00000504
     atom  199 type  4   force =     0.00000124   -0.00000030    0.00000319
     atom  200 type  4   force =    -0.00000030    0.00000036    0.00000290
     atom  201 type  4   force =     0.00000045    0.00000077    0.00000347
     atom  202 type  4   force =    -0.00000076   -0.00000088    0.00000346
     atom  203 type  4   force =    -0.00000022   -0.00000095    0.00000450
     atom  204 type  4   force =     0.00000053    0.00000031    0.00000499
     atom  205 type  4   force =    -0.00000079    0.00000007    0.00000504
     atom  206 type  4   force =     0.00000064    0.00000024    0.00000500
     atom  207 type  4   force =     0.00000137    0.00000026    0.00000350
     atom  208 type  4   force =    -0.00000115   -0.00000040    0.00000415
     atom  209 type  4   force =    -0.00000122    0.00000088    0.00000408
     atom  210 type  4   force =     0.00000065   -0.00000051    0.00000434
     atom  211 type  4   force =     0.00000012   -0.00000021    0.00000456
     atom  212 type  4   force =     0.00000018    0.00000046    0.00000466
     atom  213 type  4   force =     0.00000027   -0.00000011    0.00000345
     atom  214 type  4   force =    -0.00000024   -0.00000016    0.00000371
     atom  215 type  4   force =    -0.00000062    0.00000001    0.00000547
     atom  216 type  4   force =     0.00000062    0.00000007    0.00000451
     atom  217 type  4   force =    -0.00000092    0.00000220    0.00000305
     atom  218 type  4   force =     0.00000089   -0.00000271    0.00000309
     atom  219 type  4   force =    -0.00000024    0.00000176    0.00000331
     atom  220 type  4   force =    -0.00000042   -0.00000185    0.00000399
     atom  221 type  4   force =    -0.00000051   -0.00000145    0.00000393
     atom  222 type  4   force =     0.00000050    0.00000194    0.00000374
     atom  223 type  4   force =    -0.00000068   -0.00000128    0.00000286
     atom  224 type  4   force =     0.00000107    0.00000039    0.00000276
     atom  225 type  4   force =     0.00000016   -0.00000037    0.00000309
     atom  226 type  4   force =     0.00000018    0.00000029    0.00000392
     atom  227 type  4   force =     0.00000085    0.00000179    0.00000291
     atom  228 type  4   force =    -0.00000013   -0.00000128    0.00000304
     atom  229 type  4   force =    -0.00000019    0.00000021    0.00000346
     atom  230 type  4   force =    -0.00000073   -0.00000075    0.00000393
     atom  231 type  4   force =     0.00000073   -0.00000210    0.00000455
     atom  232 type  4   force =    -0.00000059    0.00000217    0.00000485
     atom  233 type  4   force =    -0.00000022   -0.00000215    0.00000532
     atom  234 type  4   force =    -0.00000054    0.00000318    0.00000515
     atom  235 type  4   force =    -0.00000089    0.00000166    0.00000210
     atom  236 type  4   force =     0.00000127   -0.00000206    0.00000138
     atom  237 type  4   force =     0.00000100   -0.00000164    0.00000381
     atom  238 type  4   force =    -0.00000005    0.00000126    0.00000375
     atom  239 type  4   force =    -0.00000262   -0.00000107    0.00000204
     atom  240 type  4   force =     0.00000152    0.00000149    0.00000271
     atom  241 type  4   force =     0.00000006    0.00000195    0.00000319
     atom  242 type  4   force =    -0.00000020   -0.00000176    0.00000147
     atom  243 type  4   force =     0.00000358   -0.00000043    0.00000004
     atom  244 type  4   force =    -0.00000337    0.00000009   -0.00000060
     atom  245 type  4   force =    -0.00000165   -0.00000035    0.00000030
     atom  246 type  4   force =     0.00000205    0.00000043    0.00000176
     atom  247 type  4   force =     0.00000122    0.00000194   -0.00000040
     atom  248 type  4   force =    -0.00000186   -0.00000172   -0.00000117
     atom  249 type  4   force =     0.00000191   -0.00000196   -0.00000048
     atom  250 type  4   force =    -0.00000171    0.00000199   -0.00000097
     atom  251 type  4   force =    -0.00000088    0.00000215    0.00000177
     atom  252 type  4   force =     0.00000200   -0.00000113    0.00000092
     atom  253 type  4   force =    -0.00000096   -0.00000133   -0.00000080
     atom  254 type  4   force =    -0.00000101    0.00000034    0.00000029
     atom  255 type  4   force =    -0.00000273    0.00000071   -0.00000049
     atom  256 type  4   force =     0.00000389   -0.00000071   -0.00000040
     atom  257 type  4   force =     0.00000344    0.00000053    0.00000067
     atom  258 type  4   force =    -0.00000300    0.00000008   -0.00000095
     atom  259 type  4   force =     0.00000003   -0.00000036   -0.00000052
     atom  260 type  4   force =     0.00000086   -0.00000017   -0.00000161
     atom  261 type  4   force =    -0.00000021   -0.00000010   -0.00000271
     atom  262 type  4   force =    -0.00000095    0.00000035   -0.00000259
     atom  263 type  4   force =    -0.00000029   -0.00000005   -0.00000130
     atom  264 type  4   force =     0.00000015    0.00000041   -0.00000066
     atom  265 type  4   force =    -0.00000151   -0.00000034    0.00000017
     atom  266 type  4   force =    -0.00000022   -0.00000075   -0.00000260
     atom  267 type  4   force =     0.00000149    0.00000064   -0.00000194
     atom  268 type  4   force =     0.00000168    0.00000019   -0.00000248
     atom  269 type  4   force =    -0.00000149    0.00000018   -0.00000219
     atom  270 type  4   force =    -0.00000171   -0.00000140   -0.00000162
     atom  271 type  4   force =    -0.00000009   -0.00000011   -0.00000094
     atom  272 type  4   force =     0.00000169    0.00000168   -0.00000127
     atom  273 type  4   force =    -0.00000017    0.00000025   -0.00000188
     atom  274 type  4   force =     0.00000149    0.00000033   -0.00000220
     atom  275 type  4   force =    -0.00000237   -0.00000059   -0.00000224
     atom  276 type  4   force =    -0.00000023   -0.00000160   -0.00000231
     atom  277 type  4   force =    -0.00000012    0.00000092   -0.00000211
     atom  278 type  4   force =    -0.00000072    0.00000127   -0.00000220
     atom  279 type  4   force =    -0.00000057    0.00000082   -0.00000235
     atom  280 type  4   force =     0.00000228   -0.00000036   -0.00000358
     atom  281 type  4   force =     0.00000111    0.00000125   -0.00000287
     atom  282 type  4   force =     0.00000041   -0.00000062   -0.00000285
     atom  283 type  4   force =     0.00000040   -0.00000083   -0.00000394
     atom  284 type  4   force =     0.00000043   -0.00000009   -0.00000127
     atom  285 type  4   force =    -0.00000086    0.00000012   -0.00000233
     atom  286 type  4   force =     0.00000112    0.00000023   -0.00000293
     atom  287 type  4   force =    -0.00000150    0.00000136   -0.00000012
     atom  288 type  4   force =    -0.00000206   -0.00000095   -0.00000270

     Total force =     0.108652     Total SCF correction =     0.000101

     Writing all to output data dir ./temp/M0D0025Ha.save/

     init_run     :      5.87s CPU      5.06s WALL (       1 calls)
     electrons    :    588.55s CPU    498.66s WALL (       1 calls)
     forces       :      4.26s CPU      3.11s WALL (       1 calls)

     Called by init_run:
     wfcinit      :      2.97s CPU      2.91s WALL (       1 calls)
     potinit      :      0.92s CPU      0.50s WALL (       1 calls)
     hinit0       :      1.39s CPU      1.05s WALL (       1 calls)

     Called by electrons:
     c_bands      :    552.02s CPU    479.75s WALL (      27 calls)
     sum_band     :     34.30s CPU     17.30s WALL (      27 calls)
     v_of_rho     :      1.72s CPU      1.14s WALL (      28 calls)
     mix_rho      :      0.38s CPU      0.25s WALL (      27 calls)

     Called by c_bands:
     init_us_2    :      2.47s CPU      1.31s WALL (      55 calls)
     init_us_2:cp :      2.47s CPU      1.31s WALL (      55 calls)
     regterg      :    546.72s CPU    476.54s WALL (      46 calls)

     Called by *egterg:
     rdiaghg      :    158.73s CPU     90.52s WALL (     700 calls)
     h_psi        :    258.95s CPU    256.67s WALL (     701 calls)
     g_psi        :      0.92s CPU      0.46s WALL (     654 calls)

     Called by h_psi:
     h_psi:calbec :     53.12s CPU     53.12s WALL (     701 calls)
     vloc_psi     :    155.04s CPU    152.65s WALL (     701 calls)
     add_vuspsi   :     49.11s CPU     50.06s WALL (     701 calls)

     General routines
     calbec       :     54.45s CPU     54.44s WALL (     705 calls)
     fft          :      1.25s CPU      0.94s WALL (     232 calls)
     ffts         :      0.15s CPU      0.07s WALL (      27 calls)
     fftw         :    172.33s CPU    155.42s WALL (  167498 calls)

     Parallel routines

     PWSCF        :  10m11.40s CPU   8m42.76s WALL


   This run was terminated on:  16:46:15  20Mar2025            

=------------------------------------------------------------------------------=
   JOB DONE.
=------------------------------------------------------------------------------=
