
     Program PWSCF v.7.2 starts on 20Mar2025 at 16:14:44 

     This program is part of the open-source Quantum ESPRESSO suite
     for quantum simulation of materials; please cite
         "P. Giannozzi et al., J. Phys.:Condens. Matter 21 395502 (2009);
         "P. Giannozzi et al., J. Phys.:Condens. Matter 29 465901 (2017);
         "P. Giannozzi et al., J. Chem. Phys. 152 154105 (2020);
          URL http://www.quantum-espresso.org", 
     in publications or presentations arising from this work. More details at
     http://www.quantum-espresso.org/quote

     Parallel version (MPI & OpenMP), running on     480 processor cores
     Number of MPI processes:               240
     Threads/MPI process:                     2

     MPI processes distributed on    10 nodes
     721797 MiB available memory on the printing compute node when the environment starts

     Reading input from LLZO_LaTermination_0D0025Ha.scf.in

     Current dimensions of program PWSCF are:
     Max number of different atomic species (ntypx) = 10
     Max number of k-points (npk) =  40000
     Max angular momentum in pseudopotentials (lmaxx) =  4

     gamma-point specific algorithms are used

     R & G space division:  proc/nbgrp/npool/nimage =     240
     Subspace diagonalization in iterative solution of the eigenvalue problem:
     one sub-group per band group will be used
     ELPA distributed-memory algorithm (size of sub-group: 11* 11 procs)


     Parallelization info
     --------------------
     sticks:   dense  smooth     PW     G-vecs:    dense   smooth      PW
     Min          50      50     11                18754    18754    2312
     Max          52      52     14                18892    18892    2426
     Sum       12387   12387   3101              4520369  4520369  565145

     Using Slab Decomposition



     bravais-lattice index     =            0
     lattice parameter (alat)  =      21.3406  a.u.
     unit-cell volume          =   39187.6345 (a.u.)^3
     number of atoms/cell      =          288
     number of atomic types    =            4
     number of electrons       =      1800.00
     number of Kohn-Sham states=         1080
     kinetic-energy cutoff     =      90.0000  Ry
     charge density cutoff     =     360.0000  Ry
     scf convergence threshold =      1.0E-09
     mixing beta               =       0.7000
     number of iterations used =            8  plain     mixing
     Exchange-correlation= PBE
                           (   1   4   3   4   0   0   0)

     celldm(1)=  21.340634  celldm(2)=   0.000000  celldm(3)=   0.000000
     celldm(4)=   0.000000  celldm(5)=   0.000000  celldm(6)=   0.000000

     crystal axes: (cart. coord. in units of alat)
               a(1) = (   1.000000   0.000000   0.000000 )  
               a(2) = (  -0.316403   0.948624   0.000000 )  
               a(3) = (   0.000000   0.000000   4.250429 )  

     reciprocal axes: (cart. coord. in units 2 pi/alat)
               b(1) = (  1.000000  0.333539 -0.000000 )  
               b(2) = (  0.000000  1.054158  0.000000 )  
               b(3) = (  0.000000 -0.000000  0.235270 )  


     PseudoPot. # 1 for Li read from file:
     ./Li.upf
     MD5 check sum: 36b212ba84a3343c64836813e23b5a31
     Pseudo is Norm-conserving, Zval =  3.0
     Generated using ONCVPSP code by D. R. Hamann
     Using radial grid of 1938 points,  4 beta functions with: 
                l(1) =   0
                l(2) =   0
                l(3) =   1
                l(4) =   1

     PseudoPot. # 2 for La read from file:
     ./La.upf
     MD5 check sum: 94ac605e04917972278bb538f6bd832e
     Pseudo is Norm-conserving + core correction, Zval = 11.0
     Generated using ONCVPSP code by D. R. Hamann
     Using radial grid of 1816 points,  8 beta functions with: 
                l(1) =   0
                l(2) =   0
                l(3) =   1
                l(4) =   1
                l(5) =   2
                l(6) =   2
                l(7) =   3
                l(8) =   3

     PseudoPot. # 3 for Zr read from file:
     ./Zr.upf
     MD5 check sum: 7356faafce8c11995bde75aded518977
     Pseudo is Norm-conserving + core correction, Zval = 12.0
     Generated using ONCVPSP code by D. R. Hamann
     Using radial grid of 1612 points,  6 beta functions with: 
                l(1) =   0
                l(2) =   0
                l(3) =   1
                l(4) =   1
                l(5) =   2
                l(6) =   2

     PseudoPot. # 4 for O  read from file:
     ./O.upf
     MD5 check sum: f9f408bc39120c85e44a0bb1c57dbd9f
     Pseudo is Norm-conserving + core correction, Zval =  6.0
     Generated using ONCVPSP code by D. R. Hamann
     Using radial grid of  934 points,  5 beta functions with: 
                l(1) =   0
                l(2) =   0
                l(3) =   1
                l(4) =   1
                l(5) =   2

     atomic species   valence    mass     pseudopotential
        Li             3.00     6.90000     Li( 1.00)
        La            11.00   139.00000     La( 1.00)
        Zr            12.00    91.22400     Zr( 1.00)
        O              6.00    16.00000     O ( 1.00)

     No symmetry found



   Cartesian axes

     site n.     atom                  positions (alat units)
         1           Li  tau(   1) = (  -0.0401741   0.5314518   0.9528658  )
         2           Li  tau(   2) = (   0.1309308   0.0696081   0.9385469  )
         3           Li  tau(   3) = (   0.8538406   0.0434466   0.9666809  )
         4           Li  tau(   4) = (   0.7118945   0.5489094   1.0005721  )
         5           Li  tau(   5) = (  -0.2409594   0.7769992   1.0208612  )
         6           Li  tau(   6) = (   0.3459555   0.9486075   1.0723897  )
         7           Li  tau(   7) = (   0.1356213   0.5221967   1.0728849  )
         8           Li  tau(   8) = (  -0.1896788   0.9477617   1.1409935  )
         9           Li  tau(   9) = (   0.6170900   0.5210270   1.1890965  )
        10           Li  tau(  10) = (   0.2309895   0.6668810   1.2076216  )
        11           Li  tau(  11) = (   0.2165960   0.9161132   1.2242957  )
        12           Li  tau(  12) = (   0.4182676   0.5328995   1.2974048  )
        13           Li  tau(  13) = (   0.2942079   0.0022691   1.2965237  )
        14           Li  tau(  14) = (   0.1771489   0.4655346   1.2882004  )
        15           Li  tau(  15) = (   0.6393455   0.1375649   1.3415002  )
        16           Li  tau(  16) = (   0.1335419   0.1468095   1.3351564  )
        17           Li  tau(  17) = (   0.6320857   0.3742104   1.3490262  )
        18           Li  tau(  18) = (   0.0399456   0.3312435   1.4167569  )
        19           Li  tau(  19) = (   0.8171725   0.2454882   1.4305787  )
        20           Li  tau(  20) = (   0.5613585   0.5676589   1.4466564  )
        21           Li  tau(  21) = (  -0.1079433   0.8954757   1.5056956  )
        22           Li  tau(  22) = (   0.7056349   0.1025367   1.5792814  )
        23           Li  tau(  23) = (   0.0320763   0.4625938   1.6111084  )
        24           Li  tau(  24) = (  -0.2553978   0.7734398   1.6148849  )
        25           Li  tau(  25) = (   0.5413538   0.6917385   1.6240346  )
        26           Li  tau(  26) = (  -0.0635491   0.6739187   1.6619951  )
        27           Li  tau(  27) = (  -0.0532046   0.8916387   1.7146366  )
        28           Li  tau(  28) = (   0.4428583   0.8747493   1.7009824  )
        29           Li  tau(  29) = (   0.5612555   0.0651713   1.7472496  )
        30           Li  tau(  30) = (   0.4193567   0.5433533   1.7379959  )
        31           Li  tau(  31) = (   0.2128411   0.4645996   1.7790350  )
        32           Li  tau(  32) = (   0.3581659   0.1027038   1.8261314  )
        33           Li  tau(  33) = (   0.3737168   0.3226177   1.8347685  )
        34           Li  tau(  34) = (  -0.0137717   0.4956248   1.8308839  )
        35           Li  tau(  35) = (   0.7503689   0.0750828   1.8671986  )
        36           Li  tau(  36) = (   0.4481022   0.4998232   1.9550951  )
        37           Li  tau(  37) = (   0.2360226   0.0770414   2.0097381  )
        38           Li  tau(  38) = (   0.8478227   0.2280218   2.0167662  )
        39           Li  tau(  39) = (  -0.1413950   0.4617279   2.0265256  )
        40           Li  tau(  40) = (   0.0279178   0.0844800   2.0985060  )
        41           Li  tau(  41) = (   0.6418812   0.4963596   2.1045683  )
        42           Li  tau(  42) = (   0.8006875   0.0225167   2.1037308  )
        43           Li  tau(  43) = (  -0.0415310   0.6284323   2.1538031  )
        44           Li  tau(  44) = (   0.4593846   0.6267310   2.1528822  )
        45           Li  tau(  45) = (  -0.0515820   0.8631856   2.1612773  )
        46           Li  tau(  46) = (   0.3581290   0.8224719   2.2309911  )
        47           Li  tau(  47) = (   0.1405007   0.7382607   2.2406643  )
        48           Li  tau(  48) = (   0.1905771   0.1113115   2.2480655  )
        49           Li  tau(  49) = (   0.5237185   0.4442202   2.3019042  )
        50           Li  tau(  50) = (   0.0237434   0.5980741   2.3881179  )
        51           Li  tau(  51) = (   0.6650222   0.0049314   2.4262732  )
        52           Li  tau(  52) = (   0.3814689   0.3172837   2.4230060  )
        53           Li  tau(  53) = (   0.1743810   0.2345610   2.4327829  )
        54           Li  tau(  54) = (   0.5710180   0.2062794   2.4867857  )
        55           Li  tau(  55) = (   0.5744325   0.4303424   2.5199329  )
        56           Li  tau(  56) = (   0.0740953   0.4177703   2.5111206  )
        57           Li  tau(  57) = (  -0.1187133   0.5610496   2.5584903  )
        58           Li  tau(  58) = (   0.0519769   0.0928062   2.5487406  )
        59           Li  tau(  59) = (   0.8445231   0.0127362   2.5939746  )
        60           Li  tau(  60) = (   0.6735025   0.5957282   2.6343368  )
        61           Li  tau(  61) = (   0.6905210   0.8193168   2.6413502  )
        62           Li  tau(  62) = (   0.6141528   0.0352054   2.6511848  )
        63           Li  tau(  63) = (   0.0704674   0.5661842   2.6824947  )
        64           Li  tau(  64) = (   0.0798383   0.0473235   2.7647392  )
        65           Li  tau(  65) = (   0.5499762   0.5657113   2.8171637  )
        66           Li  tau(  66) = (   0.1662536   0.7290179   2.8267159  )
        67           Li  tau(  67) = (   0.4855838   0.0094029   2.8481367  )
        68           Li  tau(  68) = (   0.3401180   0.5827416   2.9065538  )
        69           Li  tau(  69) = (   0.2652705   0.0454758   2.9235969  )
        70           Li  tau(  70) = (   0.1217015   0.5209083   2.9105600  )
        71           Li  tau(  71) = (   0.5876259   0.1828756   2.9787643  )
        72           Li  tau(  72) = (   0.0617813   0.1805987   2.9756636  )
        73           Li  tau(  73) = (   0.6004570   0.4102551   2.9836354  )
        74           Li  tau(  74) = (  -0.0044596   0.3772326   3.0327479  )
        75           Li  tau(  75) = (   0.7948367   0.3024377   3.0594680  )
        76           Li  tau(  76) = (   0.5091677   0.6011066   3.0432121  )
        77           Li  tau(  77) = (  -0.1997955   0.9442241   3.0930330  )
        78           Li  tau(  78) = (   0.6580205   0.1960587   3.1845357  )
        79           Li  tau(  79) = (  -0.0412607   0.5050288   3.2200147  )
        80           Li  tau(  80) = (   0.6619108   0.8213569   3.2164610  )
        81           Li  tau(  81) = (   0.4667152   0.7100722   3.2487273  )
        82           Li  tau(  82) = (  -0.1334777   0.7277058   3.2617371  )
        83           Li  tau(  83) = (   0.1972213   0.0072415   3.3132217  )
        84           Li  tau(  84) = (   0.3841945   0.9459370   3.2958967  )
        85           La  tau(  85) = (   0.2479666   0.7487271   0.9240042  )
        86           La  tau(  86) = (   0.3750830   0.1032760   1.0320986  )
        87           La  tau(  87) = (   0.4108498   0.4413654   1.0291867  )
        88           La  tau(  88) = (   0.8806724   0.0952360   1.2177249  )
        89           La  tau(  89) = (  -0.1115144   0.4403914   1.2069898  )
        90           La  tau(  90) = (   0.3760646   0.2649240   1.3186865  )
        91           La  tau(  91) = (   0.7174323   0.7529258   1.3274736  )
        92           La  tau(  92) = (   0.3852939   0.8033441   1.4174621  )
        93           La  tau(  93) = (   0.0478718   0.6837298   1.4086100  )
        94           La  tau(  94) = (   0.5387887   0.3299230   1.6169527  )
        95           La  tau(  95) = (   0.1996293   0.2146087   1.6222216  )
        96           La  tau(  96) = (   0.2034911   0.7447059   1.7210685  )
        97           La  tau(  97) = (   0.8639961   0.2787414   1.7232570  )
        98           La  tau(  98) = (   0.7018434   0.5770634   1.8232028  )
        99           La  tau(  99) = (  -0.2970985   0.9351959   1.8305622  )
       100           La  tau( 100) = (   0.1948814   0.5804426   2.0269246  )
       101           La  tau( 101) = (   0.2008393   0.9361509   2.0269931  )
       102           La  tau( 102) = (   0.6942969   0.7614671   2.1289111  )
       103           La  tau( 103) = (   0.3560223   0.2917327   2.1280650  )
       104           La  tau( 104) = (   0.0159556   0.3485602   2.2304904  )
       105           La  tau( 105) = (   0.6801921   0.2308445   2.2312122  )
       106           La  tau( 106) = (  -0.1442088   0.8263428   2.4265752  )
       107           La  tau( 107) = (   0.5166062   0.7090018   2.4331518  )
       108           La  tau( 108) = (   0.8340010   0.2908115   2.5370335  )
       109           La  tau( 109) = (   0.1818851   0.7690818   2.5317492  )
       110           La  tau( 110) = (   0.3321930   0.1209856   2.6350903  )
       111           La  tau( 111) = (   0.3348582   0.4773195   2.6399246  )
       112           La  tau( 112) = (   0.8231528   0.1229007   2.8479358  )
       113           La  tau( 113) = (   0.8296707   0.4821995   2.8374207  )
       114           La  tau( 114) = (   0.3249933   0.3055389   2.9378795  )
       115           La  tau( 115) = (   0.6753111   0.7805866   2.9234142  )
       116           La  tau( 116) = (   0.3308863   0.8479971   3.0456944  )
       117           La  tau( 117) = (  -0.0074688   0.7242774   3.0356819  )
       118           La  tau( 118) = (   0.4847919   0.3992438   3.2352228  )
       119           La  tau( 119) = (   0.1520868   0.2500207   3.2277706  )
       120           La  tau( 120) = (   0.1491760   0.7643674   3.3264251  )
       121           Zr  tau( 121) = (   0.6377188   0.2615917   1.1116843  )
       122           Zr  tau( 122) = (   0.1174388   0.2619688   1.0910098  )
       123           Zr  tau( 123) = (   0.4878526   0.7432788   1.1127195  )
       124           Zr  tau( 124) = (  -0.0118360   0.7402248   1.0886267  )
       125           Zr  tau( 125) = (   0.9493535   0.0392864   1.5232742  )
       126           Zr  tau( 126) = (   0.7958436   0.5120100   1.5176883  )
       127           Zr  tau( 127) = (   0.4474616   0.0311370   1.5200999  )
       128           Zr  tau( 128) = (   0.2925957   0.5079530   1.5183259  )
       129           Zr  tau( 129) = (  -0.0498924   0.7555169   1.9267789  )
       130           Zr  tau( 130) = (   0.4498379   0.7560736   1.9266420  )
       131           Zr  tau( 131) = (   0.1077390   0.2831502   1.9269117  )
       132           Zr  tau( 132) = (   0.6092200   0.2826131   1.9249006  )
       133           Zr  tau( 133) = (   0.2663741   0.5278757   2.3322722  )
       134           Zr  tau( 134) = (   0.4263547   0.0549622   2.3305043  )
       135           Zr  tau( 135) = (   0.7661909   0.5279926   2.3318425  )
       136           Zr  tau( 136) = (   0.9236358   0.0541269   2.3323735  )
       137           Zr  tau( 137) = (   0.5807740   0.2999254   2.7412308  )
       138           Zr  tau( 138) = (   0.0797148   0.2994099   2.7383551  )
       139           Zr  tau( 139) = (   0.4219125   0.7757587   2.7384962  )
       140           Zr  tau( 140) = (  -0.0711412   0.7779923   2.7326979  )
       141           Zr  tau( 141) = (   0.8838133   0.0895808   3.1700434  )
       142           Zr  tau( 142) = (   0.7357321   0.5547446   3.1472268  )
       143           Zr  tau( 143) = (   0.3918753   0.0677421   3.1653210  )
       144           Zr  tau( 144) = (   0.2374013   0.5399984   3.1427109  )
       145           O   tau( 145) = (   0.4273855   0.8436099   0.9651490  )
       146           O   tau( 146) = (   0.0824292   0.6442089   0.9516886  )
       147           O   tau( 147) = (   0.5045727   0.2652518   0.9807854  )
       148           O   tau( 148) = (   0.2239161   0.2105859   0.9506815  )
       149           O   tau( 149) = (  -0.1014333   0.8834309   1.0067566  )
       150           O   tau( 150) = (   0.5577909   0.5941607   1.0322859  )
       151           O   tau( 151) = (   0.7494457   0.1356069   1.0524431  )
       152           O   tau( 152) = (   0.0171743   0.4030213   1.0406726  )
       153           O   tau( 153) = (   0.7280356   0.4147732   1.0831274  )
       154           O   tau( 154) = (   0.0126613   0.1121503   1.0480922  )
       155           O   tau( 155) = (   0.3212924   0.6382680   1.0707820  )
       156           O   tau( 156) = (   0.1522364   0.8556475   1.0656204  )
       157           O   tau( 157) = (  -0.1515598   0.6334951   1.0448072  )
       158           O   tau( 158) = (   0.6471026   0.8304250   1.1361875  )
       159           O   tau( 159) = (   0.2508743   0.3897829   1.1545287  )
       160           O   tau( 160) = (   0.5160530   0.1361178   1.1966360  )
       161           O   tau( 161) = (   0.5073038   0.3939765   1.2038700  )
       162           O   tau( 162) = (   0.2406841   0.1341097   1.1941272  )
       163           O   tau( 163) = (   0.3894770   0.8738009   1.2168197  )
       164           O   tau( 164) = (   0.0679953   0.6069637   1.2057346  )
       165           O   tau( 165) = (   0.0148968   0.2664882   1.2550713  )
       166           O   tau( 166) = (   0.7419805   0.2610841   1.2740031  )
       167           O   tau( 167) = (  -0.0793091   0.7998422   1.2561650  )
       168           O   tau( 168) = (   0.5142695   0.6692848   1.2867600  )
       169           O   tau( 169) = (   0.7120629   0.5281451   1.3489026  )
       170           O   tau( 170) = (   0.0344042   0.0151908   1.3568875  )
       171           O   tau( 171) = (   0.2666255   0.6046510   1.3601069  )
       172           O   tau( 172) = (   0.1714062   0.8648654   1.3751109  )
       173           O   tau( 173) = (   0.7887906   0.0709345   1.4308889  )
       174           O   tau( 174) = (  -0.0456162   0.4766592   1.4253234  )
       175           O   tau( 175) = (   0.2858863   0.0920937   1.4427768  )
       176           O   tau( 176) = (   0.4538073   0.4384712   1.4438990  )
       177           O   tau( 177) = (   0.2098197   0.3553652   1.4401462  )
       178           O   tau( 178) = (   0.5301429   0.1870787   1.4556395  )
       179           O   tau( 179) = (  -0.1547780   0.6971069   1.5008447  )
       180           O   tau( 180) = (   0.5945490   0.8028747   1.5065814  )
       181           O   tau( 181) = (  -0.0068685   0.2205628   1.5383633  )
       182           O   tau( 182) = (   0.7426216   0.3340107   1.5459333  )
       183           O   tau( 183) = (   0.0399908   0.8296294   1.5899910  )
       184           O   tau( 184) = (   0.3789678   0.6570843   1.5930099  )
       185           O   tau( 185) = (   0.2891978   0.9158865   1.6017976  )
       186           O   tau( 186) = (   0.1382820   0.5859127   1.5895691  )
       187           O   tau( 187) = (   0.6362398   0.5526996   1.6108003  )
       188           O   tau( 188) = (   0.1055337   0.0029184   1.6240961  )
       189           O   tau( 189) = (   0.4065014   0.1404890   1.6685327  )
       190           O   tau( 190) = (   0.3276682   0.4006998   1.6706198  )
       191           O   tau( 191) = (   0.8574166   0.0606502   1.6871912  )
       192           O   tau( 192) = (  -0.1206837   0.5058734   1.6873595  )
       193           O   tau( 193) = (   0.0748446   0.3609066   1.7569096  )
       194           O   tau( 194) = (   0.6583611   0.2018628   1.7601440  )
       195           O   tau( 195) = (  -0.1617902   0.7586617   1.7750471  )
       196           O   tau( 196) = (   0.5664267   0.7537696   1.7783762  )
       197           O   tau( 197) = (   0.5255665   0.4202697   1.8256546  )
       198           O   tau( 198) = (   0.1941281   0.1421395   1.8360412  )
       199           O   tau( 199) = (   0.0728304   0.6332688   1.8516382  )
       200           O   tau( 200) = (   0.3375721   0.8844472   1.8456956  )
       201           O   tau( 201) = (   0.0656870   0.8861457   1.8550115  )
       202           O   tau( 202) = (   0.3354542   0.6204574   1.8600583  )
       203           O   tau( 203) = (  -0.0472477   0.1800914   1.9001238  )
       204           O   tau( 204) = (   0.7686233   0.3809156   1.9053961  )
       205           O   tau( 205) = (   0.4483865   0.1861070   1.9411677  )
       206           O   tau( 206) = (   0.2649960   0.3880809   1.9432240  )
       207           O   tau( 207) = (   0.5709288   0.8839403   1.9944713  )
       208           O   tau( 208) = (  -0.1673537   0.6276893   1.9977306  )
       209           O   tau( 209) = (  -0.1654682   0.8820626   2.0083693  )
       210           O   tau( 210) = (   0.5600381   0.6235178   2.0052012  )
       211           O   tau( 211) = (   0.0245008   0.4227645   2.0207037  )
       212           O   tau( 212) = (   0.6934143   0.1416167   2.0188874  )
       213           O   tau( 213) = (   0.3325048   0.7614689   2.0732631  )
       214           O   tau( 214) = (   0.0600008   0.7567758   2.0811248  )
       215           O   tau( 215) = (   0.5600722   0.3542588   2.0917822  )
       216           O   tau( 216) = (   0.1457504   0.2075857   2.0956848  )
       217           O   tau( 217) = (   0.3424480   0.0663831   2.1616537  )
       218           O   tau( 218) = (   0.3499709   0.5045145   2.1651137  )
       219           O   tau( 219) = (   0.8907038   0.1580552   2.1773262  )
       220           O   tau( 220) = (   0.8085045   0.4187644   2.1847239  )
       221           O   tau( 221) = (   0.1059741   0.5637683   2.2383457  )
       222           O   tau( 222) = (   0.5853912   0.0192002   2.2375818  )
       223           O   tau( 223) = (   0.6054538   0.5901802   2.2525974  )
       224           O   tau( 224) = (  -0.2356788   0.9335534   2.2509666  )
       225           O   tau( 225) = (   0.5235546   0.8499673   2.2620540  )
       226           O   tau( 226) = (  -0.1502241   0.6836438   2.2648068  )
       227           O   tau( 227) = (   0.4759516   0.2367742   2.3122298  )
       228           O   tau( 228) = (   0.2252583   0.3452255   2.3158339  )
       229           O   tau( 229) = (   0.3089769   0.7106516   2.3507560  )
       230           O   tau( 230) = (   0.0598438   0.8236304   2.3555445  )
       231           O   tau( 231) = (   0.6748381   0.3761921   2.3982177  )
       232           O   tau( 232) = (   0.0096835   0.2052172   2.4050826  )
       233           O   tau( 233) = (  -0.0767336   0.4627083   2.4129477  )
       234           O   tau( 234) = (   0.7684597   0.1308599   2.4072604  )
       235           O   tau( 235) = (   0.2654941   0.0921704   2.4220922  )
       236           O   tau( 236) = (   0.4239097   0.4926305   2.4310885  )
       237           O   tau( 237) = (   0.7246502   0.6382534   2.4789915  )
       238           O   tau( 238) = (   0.6455974   0.8977877   2.4841063  )
       239           O   tau( 239) = (   0.1746452   0.5506560   2.4963779  )
       240           O   tau( 240) = (   0.5090804   0.0462714   2.5006341  )
       241           O   tau( 241) = (   0.3895869   0.8531902   2.5696702  )
       242           O   tau( 242) = (  -0.0222483   0.6973276   2.5697583  )
       243           O   tau( 243) = (   0.4682703   0.2986710   2.5875376  )
       244           O   tau( 244) = (   0.1963774   0.2930768   2.5898446  )
       245           O   tau( 245) = (  -0.1556603   0.9168492   2.6368487  )
       246           O   tau( 246) = (   0.5093213   0.6349919   2.6490719  )
       247           O   tau( 247) = (   0.6988948   0.1762794   2.6637520  )
       248           O   tau( 248) = (  -0.0306307   0.4300256   2.6567819  )
       249           O   tau( 249) = (   0.6941465   0.4300435   2.6652903  )
       250           O   tau( 250) = (  -0.0348807   0.1650300   2.6716964  )
       251           O   tau( 251) = (   0.2682703   0.6705035   2.7126025  )
       252           O   tau( 252) = (   0.0876737   0.8760775   2.7198171  )
       253           O   tau( 253) = (   0.7674728   0.6823684   2.7451133  )
       254           O   tau( 254) = (   0.5784280   0.8815986   2.7516547  )
       255           O   tau( 255) = (   0.2016423   0.4283146   2.8021403  )
       256           O   tau( 256) = (   0.4631313   0.1753190   2.8217422  )
       257           O   tau( 257) = (   0.4604479   0.4266897   2.8158828  )
       258           O   tau( 258) = (   0.1893437   0.1692683   2.8197750  )
       259           O   tau( 259) = (   0.3341957   0.9123330   2.8338235  )
       260           O   tau( 260) = (   0.0109518   0.6377609   2.8309482  )
       261           O   tau( 261) = (  -0.0405151   0.3044934   2.8830219  )
       262           O   tau( 262) = (   0.6919956   0.3036649   2.8916371  )
       263           O   tau( 263) = (  -0.1219692   0.8480587   2.8995149  )
       264           O   tau( 264) = (   0.4601571   0.7057095   2.9116319  )
       265           O   tau( 265) = (   0.6610157   0.5647212   2.9590270  )
       266           O   tau( 266) = (   0.9721176   0.0366668   2.9864638  )
       267           O   tau( 267) = (   0.2062559   0.6531552   2.9902705  )
       268           O   tau( 268) = (   0.1173061   0.9087102   3.0123843  )
       269           O   tau( 269) = (   0.7308552   0.1106778   3.0466528  )
       270           O   tau( 270) = (  -0.1039457   0.5145492   3.0462299  )
       271           O   tau( 271) = (   0.2352366   0.1314950   3.0693376  )
       272           O   tau( 272) = (   0.3974793   0.4778629   3.0590249  )
       273           O   tau( 273) = (   0.1584567   0.3955862   3.0575547  )
       274           O   tau( 274) = (   0.4783659   0.2212572   3.1116490  )
       275           O   tau( 275) = (  -0.2250217   0.7449031   3.1155313  )
       276           O   tau( 276) = (   0.5003556   0.8579194   3.1855030  )
       277           O   tau( 277) = (  -0.0398109   0.2555246   3.1385110  )
       278           O   tau( 278) = (   0.6721747   0.3781719   3.1448816  )
       279           O   tau( 279) = (  -0.0128929   0.8464739   3.2354956  )
       280           O   tau( 280) = (   0.3073175   0.6932600   3.2299859  )
       281           O   tau( 281) = (   0.2247218   0.9322135   3.2444881  )
       282           O   tau( 282) = (   0.0815148   0.6133238   3.2143656  )
       283           O   tau( 283) = (   0.5648201   0.5886521   3.2126606  )
       284           O   tau( 284) = (   0.0469442   0.0332460   3.2464786  )
       285           O   tau( 285) = (   0.3020974   0.1360316   3.3077066  )
       286           O   tau( 286) = (   0.2794488   0.4199818   3.2760468  )
       287           O   tau( 287) = (   0.7704661   0.1392517   3.2929744  )
       288           O   tau( 288) = (  -0.1679624   0.5739047   3.2927061  )

     number of k points=     1  Fermi-Dirac smearing, width (Ry)=  0.0000
                       cart. coord. in units 2pi/alat
        k(    1) = (   0.0000000   0.0000000   0.0000000), wk =   2.0000000

     Dense  grid:  2260185 G-vectors     FFT dimensions: ( 135, 135, 576)

     Estimated max dynamical RAM per process >     229.15 MB

     Estimated total dynamical RAM >      53.71 GB

     Initial potential from superposition of free atoms

     starting charge    1799.2393, renormalised to    1800.0000

     negative rho (up, down):  4.061E-04 0.000E+00

     Adding external electric field

     Computed dipole along edir(3) : 
        Dipole               -0.0004 Ry au,         -0.0010 Debye
        Dipole field         -0.0000 Ry au, 

        E field amplitude [Ha a.u.]:  2.5000E-03
        Potential amp.        0.3628 Ry
        Total length         72.5655 bohr

     Starting wfcs are 1344 atomic wfcs

     total cpu time spent up to now is        5.2 secs

     Self-consistent Calculation

     iteration #  1     ecut=    90.00 Ry     beta= 0.70
     Davidson diagonalization with overlap
     ethr =  1.00E-02,  avg # of iterations =  2.0

     negative rho (up, down):  1.130E-04 0.000E+00

     Adding external electric field

     Computed dipole along edir(3) : 
        Dipole                4.7829 Ry au,         12.1568 Debye
        Dipole field          0.0015 Ry au, 

        E field amplitude [Ha a.u.]:  2.5000E-03
        Potential amp.        0.1402 Ry
        Total length         72.5655 bohr


     total cpu time spent up to now is       11.9 secs

     total energy              =  -10936.71978595 Ry
     estimated scf accuracy    <      84.67474741 Ry

     iteration #  2     ecut=    90.00 Ry     beta= 0.70
     Davidson diagonalization with overlap
     ethr =  4.70E-03,  avg # of iterations =  3.0

     negative rho (up, down):  4.450E-05 0.000E+00

     Adding external electric field

     Computed dipole along edir(3) : 
        Dipole               -0.4659 Ry au,         -1.1842 Debye
        Dipole field         -0.0001 Ry au, 

        E field amplitude [Ha a.u.]:  2.5000E-03
        Potential amp.        0.3845 Ry
        Total length         72.5655 bohr


     total cpu time spent up to now is       21.7 secs

     total energy              =  -10929.85492385 Ry
     estimated scf accuracy    <     234.10494510 Ry

     iteration #  3     ecut=    90.00 Ry     beta= 0.70
     Davidson diagonalization with overlap
     ethr =  4.70E-03,  avg # of iterations = 17.0

     negative rho (up, down):  3.832E-05 0.000E+00

     Adding external electric field

     Computed dipole along edir(3) : 
        Dipole               18.7955 Ry au,         47.7733 Debye
        Dipole field          0.0060 Ry au, 

        E field amplitude [Ha a.u.]:  2.5000E-03
        Potential amp.       -0.5119 Ry
        Total length         72.5655 bohr


     total cpu time spent up to now is       39.9 secs

     total energy              =  -10859.59558710 Ry
     estimated scf accuracy    <   40240.10289781 Ry

     iteration #  4     ecut=    90.00 Ry     beta= 0.70
     Davidson diagonalization with overlap
     ethr =  4.70E-03,  avg # of iterations = 15.0

     negative rho (up, down):  1.743E-05 0.000E+00

     Adding external electric field

     Computed dipole along edir(3) : 
        Dipole                8.2802 Ry au,         21.0463 Debye
        Dipole field          0.0027 Ry au, 

        E field amplitude [Ha a.u.]:  2.5000E-03
        Potential amp.       -0.0225 Ry
        Total length         72.5655 bohr


     total cpu time spent up to now is       54.4 secs

     total energy              =  -10932.09305622 Ry
     estimated scf accuracy    <    5425.66184306 Ry

     iteration #  5     ecut=    90.00 Ry     beta= 0.70
     Davidson diagonalization with overlap
     ethr =  4.70E-03,  avg # of iterations =  9.0

     Adding external electric field

     Computed dipole along edir(3) : 
        Dipole                4.0520 Ry au,         10.2992 Debye
        Dipole field          0.0013 Ry au, 

        E field amplitude [Ha a.u.]:  2.5000E-03
        Potential amp.        0.1742 Ry
        Total length         72.5655 bohr


     total cpu time spent up to now is       63.4 secs

     total energy              =  -10976.88966161 Ry
     estimated scf accuracy    <      16.75137121 Ry

     iteration #  6     ecut=    90.00 Ry     beta= 0.70
     Davidson diagonalization with overlap
     ethr =  9.31E-04,  avg # of iterations =  9.0

     Adding external electric field

     Computed dipole along edir(3) : 
        Dipole                4.5650 Ry au,         11.6031 Debye
        Dipole field          0.0015 Ry au, 

        E field amplitude [Ha a.u.]:  2.5000E-03
        Potential amp.        0.1504 Ry
        Total length         72.5655 bohr


     total cpu time spent up to now is       73.7 secs

     total energy              =  -10980.10998883 Ry
     estimated scf accuracy    <       3.76179035 Ry

     iteration #  7     ecut=    90.00 Ry     beta= 0.70
     Davidson diagonalization with overlap
     ethr =  2.09E-04,  avg # of iterations = 21.0

     negative rho (up, down):  2.435E-05 0.000E+00

     Adding external electric field

     Computed dipole along edir(3) : 
        Dipole                2.4375 Ry au,          6.1955 Debye
        Dipole field          0.0008 Ry au, 

        E field amplitude [Ha a.u.]:  2.5000E-03
        Potential amp.        0.2494 Ry
        Total length         72.5655 bohr


     total cpu time spent up to now is       91.5 secs

     total energy              =  -10980.11594825 Ry
     estimated scf accuracy    <       1.13362260 Ry

     iteration #  8     ecut=    90.00 Ry     beta= 0.70
     Davidson diagonalization with overlap
     ethr =  6.30E-05,  avg # of iterations = 17.0

     negative rho (up, down):  4.277E-04 0.000E+00

     Adding external electric field

     Computed dipole along edir(3) : 
        Dipole                3.3655 Ry au,          8.5542 Debye
        Dipole field          0.0011 Ry au, 

        E field amplitude [Ha a.u.]:  2.5000E-03
        Potential amp.        0.2062 Ry
        Total length         72.5655 bohr


     total cpu time spent up to now is      106.9 secs

     total energy              =  -10980.19366064 Ry
     estimated scf accuracy    <       0.29749983 Ry

     iteration #  9     ecut=    90.00 Ry     beta= 0.70
     Davidson diagonalization with overlap
     c_bands:  1 eigenvalues not converged
     ethr =  1.65E-05,  avg # of iterations = 40.0

     negative rho (up, down):  3.968E-04 0.000E+00

     Adding external electric field

     Computed dipole along edir(3) : 
        Dipole                2.2209 Ry au,          5.6450 Debye
        Dipole field          0.0007 Ry au, 

        E field amplitude [Ha a.u.]:  2.5000E-03
        Potential amp.        0.2595 Ry
        Total length         72.5655 bohr


     total cpu time spent up to now is      130.0 secs

     total energy              =  -10980.24270649 Ry
     estimated scf accuracy    <       0.19237744 Ry

     iteration # 10     ecut=    90.00 Ry     beta= 0.70
     Davidson diagonalization with overlap
     ethr =  1.07E-05,  avg # of iterations = 29.0

     negative rho (up, down):  2.128E-04 0.000E+00

     Adding external electric field

     Computed dipole along edir(3) : 
        Dipole                2.4041 Ry au,          6.1107 Debye
        Dipole field          0.0008 Ry au, 

        E field amplitude [Ha a.u.]:  2.5000E-03
        Potential amp.        0.2509 Ry
        Total length         72.5655 bohr


     total cpu time spent up to now is      148.7 secs

     total energy              =  -10980.25930191 Ry
     estimated scf accuracy    <       0.04380417 Ry

     iteration # 11     ecut=    90.00 Ry     beta= 0.70
     Davidson diagonalization with overlap
     c_bands:  5 eigenvalues not converged
     ethr =  2.43E-06,  avg # of iterations = 40.0

     negative rho (up, down):  9.855E-05 0.000E+00

     Adding external electric field

     Computed dipole along edir(3) : 
        Dipole                2.3228 Ry au,          5.9040 Debye
        Dipole field          0.0007 Ry au, 

        E field amplitude [Ha a.u.]:  2.5000E-03
        Potential amp.        0.2547 Ry
        Total length         72.5655 bohr


     total cpu time spent up to now is      168.5 secs

     total energy              =  -10980.26327907 Ry
     estimated scf accuracy    <       0.01593276 Ry

     iteration # 12     ecut=    90.00 Ry     beta= 0.70
     Davidson diagonalization with overlap
     c_bands:  1 eigenvalues not converged
     ethr =  8.85E-07,  avg # of iterations = 40.0

     negative rho (up, down):  1.161E-04 0.000E+00

     Adding external electric field

     Computed dipole along edir(3) : 
        Dipole                3.5196 Ry au,          8.9459 Debye
        Dipole field          0.0011 Ry au, 

        E field amplitude [Ha a.u.]:  2.5000E-03
        Potential amp.        0.1990 Ry
        Total length         72.5655 bohr


     total cpu time spent up to now is      185.0 secs

     total energy              =  -10980.25416741 Ry
     estimated scf accuracy    <       0.01324085 Ry

     iteration # 13     ecut=    90.00 Ry     beta= 0.70
     Davidson diagonalization with overlap
     ethr =  7.36E-07,  avg # of iterations = 76.0

     negative rho (up, down):  1.480E-05 0.000E+00

     Adding external electric field

     Computed dipole along edir(3) : 
        Dipole                3.2560 Ry au,          8.2760 Debye
        Dipole field          0.0010 Ry au, 

        E field amplitude [Ha a.u.]:  2.5000E-03
        Potential amp.        0.2113 Ry
        Total length         72.5655 bohr


     total cpu time spent up to now is      239.8 secs

     total energy              =  -10980.25324047 Ry
     estimated scf accuracy    <       0.04602328 Ry

     iteration # 14     ecut=    90.00 Ry     beta= 0.70
     Davidson diagonalization with overlap
     ethr =  7.36E-07,  avg # of iterations = 75.0

     negative rho (up, down):  2.065E-05 0.000E+00

     Adding external electric field

     Computed dipole along edir(3) : 
        Dipole                2.9142 Ry au,          7.4071 Debye
        Dipole field          0.0009 Ry au, 

        E field amplitude [Ha a.u.]:  2.5000E-03
        Potential amp.        0.2272 Ry
        Total length         72.5655 bohr


     total cpu time spent up to now is      286.3 secs

     total energy              =  -10980.26059044 Ry
     estimated scf accuracy    <       0.00356107 Ry

     iteration # 15     ecut=    90.00 Ry     beta= 0.70
     Davidson diagonalization with overlap
     ethr =  1.98E-07,  avg # of iterations = 62.0

     negative rho (up, down):  8.540E-06 0.000E+00

     Adding external electric field

     Computed dipole along edir(3) : 
        Dipole                2.9359 Ry au,          7.4622 Debye
        Dipole field          0.0009 Ry au, 

        E field amplitude [Ha a.u.]:  2.5000E-03
        Potential amp.        0.2262 Ry
        Total length         72.5655 bohr


     total cpu time spent up to now is      321.8 secs

     total energy              =  -10980.26123243 Ry
     estimated scf accuracy    <       0.00010790 Ry

     iteration # 16     ecut=    90.00 Ry     beta= 0.70
     Davidson diagonalization with overlap
     ethr =  5.99E-09,  avg # of iterations =  4.0

     negative rho (up, down):  2.077E-06 0.000E+00

     Adding external electric field

     Computed dipole along edir(3) : 
        Dipole                2.9347 Ry au,          7.4592 Debye
        Dipole field          0.0009 Ry au, 

        E field amplitude [Ha a.u.]:  2.5000E-03
        Potential amp.        0.2262 Ry
        Total length         72.5655 bohr


     total cpu time spent up to now is      330.3 secs

     total energy              =  -10980.26125585 Ry
     estimated scf accuracy    <       0.00005525 Ry

     iteration # 17     ecut=    90.00 Ry     beta= 0.70
     Davidson diagonalization with overlap
     ethr =  3.07E-09,  avg # of iterations =  3.0

     negative rho (up, down):  5.070E-07 0.000E+00

     Adding external electric field

     Computed dipole along edir(3) : 
        Dipole                2.9396 Ry au,          7.4718 Debye
        Dipole field          0.0009 Ry au, 

        E field amplitude [Ha a.u.]:  2.5000E-03
        Potential amp.        0.2260 Ry
        Total length         72.5655 bohr


     total cpu time spent up to now is      337.7 secs

     total energy              =  -10980.26126515 Ry
     estimated scf accuracy    <       0.00000241 Ry

     iteration # 18     ecut=    90.00 Ry     beta= 0.70
     Davidson diagonalization with overlap
     ethr =  1.34E-10,  avg # of iterations =  5.0

     negative rho (up, down):  9.722E-08 0.000E+00

     Adding external electric field

     Computed dipole along edir(3) : 
        Dipole                2.9360 Ry au,          7.4627 Debye
        Dipole field          0.0009 Ry au, 

        E field amplitude [Ha a.u.]:  2.5000E-03
        Potential amp.        0.2262 Ry
        Total length         72.5655 bohr


     total cpu time spent up to now is      348.2 secs

     total energy              =  -10980.26126611 Ry
     estimated scf accuracy    <       0.00000176 Ry

     iteration # 19     ecut=    90.00 Ry     beta= 0.70
     Davidson diagonalization with overlap
     ethr =  9.80E-11,  avg # of iterations =  4.0

     negative rho (up, down):  2.479E-08 0.000E+00

     Adding external electric field

     Computed dipole along edir(3) : 
        Dipole                2.9351 Ry au,          7.4604 Debye
        Dipole field          0.0009 Ry au, 

        E field amplitude [Ha a.u.]:  2.5000E-03
        Potential amp.        0.2262 Ry
        Total length         72.5655 bohr


     total cpu time spent up to now is      355.8 secs

     total energy              =  -10980.26126639 Ry
     estimated scf accuracy    <       0.00000031 Ry

     iteration # 20     ecut=    90.00 Ry     beta= 0.70
     Davidson diagonalization with overlap
     ethr =  1.72E-11,  avg # of iterations =  5.0

     Adding external electric field

     Computed dipole along edir(3) : 
        Dipole                2.9360 Ry au,          7.4624 Debye
        Dipole field          0.0009 Ry au, 

        E field amplitude [Ha a.u.]:  2.5000E-03
        Potential amp.        0.2262 Ry
        Total length         72.5655 bohr


     total cpu time spent up to now is      363.8 secs

     total energy              =  -10980.26126643 Ry
     estimated scf accuracy    <       0.00000007 Ry

     iteration # 21     ecut=    90.00 Ry     beta= 0.70
     Davidson diagonalization with overlap
     ethr =  3.66E-12,  avg # of iterations =  5.0

     Adding external electric field

     Computed dipole along edir(3) : 
        Dipole                2.9358 Ry au,          7.4622 Debye
        Dipole field          0.0009 Ry au, 

        E field amplitude [Ha a.u.]:  2.5000E-03
        Potential amp.        0.2262 Ry
        Total length         72.5655 bohr


     total cpu time spent up to now is      374.1 secs

     total energy              =  -10980.26126646 Ry
     estimated scf accuracy    <       0.00000004 Ry

     iteration # 22     ecut=    90.00 Ry     beta= 0.70
     Davidson diagonalization with overlap
     ethr =  1.98E-12,  avg # of iterations =  2.0

     Adding external electric field

     Computed dipole along edir(3) : 
        Dipole                2.9358 Ry au,          7.4621 Debye
        Dipole field          0.0009 Ry au, 

        E field amplitude [Ha a.u.]:  2.5000E-03
        Potential amp.        0.2262 Ry
        Total length         72.5655 bohr


     total cpu time spent up to now is      381.4 secs

     total energy              =  -10980.26126646 Ry
     estimated scf accuracy    <          4.8E-09 Ry

     iteration # 23     ecut=    90.00 Ry     beta= 0.70
     Davidson diagonalization with overlap
     c_bands:  1 eigenvalues not converged
     ethr =  2.65E-13,  avg # of iterations = 20.0

     Adding external electric field

     Computed dipole along edir(3) : 
        Dipole                2.9360 Ry au,          7.4626 Debye
        Dipole field          0.0009 Ry au, 

        E field amplitude [Ha a.u.]:  2.5000E-03
        Potential amp.        0.2262 Ry
        Total length         72.5655 bohr


     total cpu time spent up to now is      394.2 secs

     End of self-consistent calculation

          k = 0.0000 0.0000 0.0000 (282573 PWs)   bands (ev):

   -45.0116 -44.8556 -44.6861 -44.6781 -44.6760 -44.6647 -44.6557 -44.5773
   -44.5184 -44.5043 -44.5043 -44.5010 -44.3523 -44.3520 -44.3446 -44.3422
   -44.2105 -44.1970 -44.1790 -44.1778 -44.1612 -44.0692 -43.6217 -43.4429
   -41.5884 -41.2319 -41.0961 -41.0913 -41.0699 -41.0577 -40.9884 -40.9692
   -40.9642 -40.9588 -40.9330 -40.9268 -40.9095 -40.8812 -40.8785 -40.8719
   -40.8633 -40.8409 -40.8031 -40.7934 -40.7862 -40.7726 -40.7702 -40.7562
   -40.7491 -40.7187 -40.7149 -40.7035 -40.6987 -40.6864 -40.6729 -40.6722
   -40.6554 -40.6495 -40.6259 -40.6150 -40.6094 -40.6008 -40.5715 -40.5509
   -40.5490 -40.5436 -40.5194 -40.5188 -40.5057 -40.5045 -40.4835 -40.4813
   -40.4537 -40.4476 -40.4332 -40.4195 -40.4141 -40.4056 -40.3970 -40.3874
   -40.3856 -40.3718 -40.3518 -40.3139 -40.2942 -40.2885 -40.2438 -40.2248
   -40.1681 -40.1451 -40.1445 -40.1144 -40.1078 -40.0636 -39.9944 -39.9699
   -39.9335 -39.8698 -39.7930 -39.7899 -39.6716 -39.5934 -39.5454 -39.5104
   -39.4820 -39.4206 -39.3698 -39.1074 -28.2048 -27.8082 -27.6007 -27.5605
   -27.5542 -27.5204 -27.4892 -27.4717 -27.4684 -27.4319 -27.4120 -27.4057
   -27.3844 -27.3622 -27.3266 -27.3190 -27.3172 -27.2783 -27.2413 -27.2230
   -27.1778 -27.1482 -27.1347 -27.0888 -27.0884 -27.0606 -27.0587 -27.0295
   -27.0058 -26.9818 -26.9818 -26.9342 -26.8936 -26.8279 -26.7890 -26.6325
   -23.2787 -23.2044 -23.1653 -23.1294 -23.0953 -23.0515 -22.9679 -22.9662
   -22.9536 -22.9519 -22.9410 -22.9367 -22.9319 -22.9316 -22.9274 -22.9059
   -22.9028 -22.8980 -22.8973 -22.8946 -22.8829 -22.8415 -22.8330 -22.8122
   -22.8020 -22.7894 -22.7886 -22.7874 -22.7745 -22.7654 -22.7605 -22.7562
   -22.7441 -22.7313 -22.7294 -22.7253 -22.6370 -22.6354 -22.6297 -22.6277
   -22.6109 -22.6094 -22.6027 -22.6007 -22.5794 -22.5757 -22.5698 -22.5670
   -22.4999 -22.4921 -22.4778 -22.4746 -22.4637 -22.4464 -22.4397 -22.4304
   -22.4248 -22.4225 -22.4212 -22.4066 -22.4041 -22.3854 -22.3753 -22.3708
   -22.3497 -22.3139 -21.9519 -21.8819 -21.8412 -21.7390 -21.7285 -21.6449
   -14.9374 -14.8483 -14.5824 -14.5019 -14.3639 -14.3143 -14.2957 -14.2671
   -14.1906 -14.1712 -14.1402 -14.1295 -14.1173 -14.1039 -14.0720 -14.0621
   -14.0566 -14.0164 -13.9991 -13.9776 -13.9698 -13.9565 -13.9310 -13.9180
   -13.8979 -13.8815 -13.8695 -13.8500 -13.8393 -13.8316 -13.8219 -13.8103
   -13.7998 -13.7888 -13.7678 -13.7609 -13.7489 -13.7322 -13.7226 -13.6898
   -13.6848 -13.6793 -13.6542 -13.6491 -13.6204 -13.6075 -13.5965 -13.5927
   -13.5807 -13.5722 -13.5653 -13.5515 -13.5399 -13.5360 -13.5174 -13.5107
   -13.5074 -13.4909 -13.4826 -13.4764 -13.4495 -13.4463 -13.4360 -13.4262
   -13.4224 -13.4040 -13.4026 -13.3688 -13.3668 -13.3629 -13.3422 -13.3358
   -13.3230 -13.3129 -13.3014 -13.2967 -13.2918 -13.2835 -13.2787 -13.2730
   -13.2645 -13.2543 -13.2392 -13.2247 -13.2176 -13.2074 -13.2065 -13.1964
   -13.1772 -13.1644 -13.1578 -13.1508 -13.1502 -13.1303 -13.1165 -13.1121
   -13.1087 -13.0874 -13.0751 -13.0646 -13.0554 -13.0460 -13.0366 -13.0306
   -13.0191 -13.0155 -12.9898 -12.9824 -12.9778 -12.9694 -12.9574 -12.9458
   -12.9299 -12.9142 -12.9062 -12.8754 -12.8720 -12.8593 -12.8399 -12.8279
   -12.8185 -12.8107 -12.7887 -12.7778 -12.7573 -12.7483 -12.7131 -12.7056
   -12.6702 -12.6521 -12.6419 -12.5935 -12.5854 -12.5754 -12.5163 -12.4924
   -12.4559 -12.4525 -12.3970 -12.3253 -12.1008 -12.0051 -11.5976 -11.4204
   -11.3577 -11.3349 -11.1415 -11.1064 -11.0786 -11.0552 -11.0332 -11.0153
   -10.9819 -10.9585 -10.9370 -10.9309 -10.8955 -10.8944 -10.8748 -10.8505
   -10.8465 -10.8387 -10.8187 -10.8062 -10.7950 -10.7809 -10.7581 -10.7517
   -10.7426 -10.7287 -10.7245 -10.7231 -10.7011 -10.6950 -10.6917 -10.6833
   -10.6764 -10.6578 -10.6509 -10.6438 -10.6361 -10.6301 -10.6039 -10.5998
   -10.5956 -10.5907 -10.5797 -10.5760 -10.5520 -10.5467 -10.5303 -10.5199
   -10.5140 -10.5039 -10.4981 -10.4792 -10.4725 -10.4704 -10.4554 -10.4502
   -10.4446 -10.4265 -10.4119 -10.4048 -10.3914 -10.3641 -10.3572 -10.3416
   -10.3282 -10.3210 -10.3115 -10.3062 -10.2973 -10.2915 -10.2777 -10.2686
   -10.2504 -10.2282 -10.2177 -10.2071 -10.2017 -10.1734 -10.1607 -10.1487
   -10.1330 -10.1123 -10.1043 -10.0706 -10.0686 -10.0659 -10.0557 -10.0413
   -10.0296 -10.0169 -10.0137  -9.9911  -9.9798  -9.9658  -9.9274  -9.9219
    -9.8991  -9.8699  -9.8454  -9.8222  -9.7715  -9.7544  -9.7332  -9.6407
    -9.6032  -9.4858  -9.4050  -9.3613  -1.1007  -0.9720  -0.9153  -0.8864
    -0.8606  -0.8385  -0.8302  -0.7773  -0.7606  -0.7467  -0.7247  -0.7065
    -0.6925  -0.6876  -0.6540  -0.6226  -0.5963  -0.5870  -0.5676  -0.5552
    -0.5394  -0.5173  -0.5115  -0.5093  -0.4979  -0.4646  -0.4340  -0.4283
    -0.4134  -0.4067  -0.3977  -0.3943  -0.3901  -0.3722  -0.3658  -0.3473
    -0.3398  -0.3357  -0.3240  -0.3159  -0.3048  -0.2975  -0.2848  -0.2780
    -0.2615  -0.2504  -0.2435  -0.2284  -0.2204  -0.2099  -0.2042  -0.1974
    -0.1896  -0.1789  -0.1697  -0.1606  -0.1528  -0.1379  -0.1369  -0.1311
    -0.1306  -0.1171  -0.1054  -0.0994  -0.0925  -0.0777  -0.0638  -0.0606
    -0.0548  -0.0504  -0.0366  -0.0311  -0.0246  -0.0142  -0.0136  -0.0112
     0.0011   0.0103   0.0180   0.0245   0.0282   0.0407   0.0525   0.0608
     0.0674   0.0728   0.0740   0.0789   0.0846   0.1006   0.1089   0.1125
     0.1172   0.1295   0.1354   0.1418   0.1471   0.1506   0.1535   0.1600
     0.1659   0.1724   0.1836   0.1892   0.1973   0.2058   0.2164   0.2261
     0.2334   0.2372   0.2433   0.2486   0.2527   0.2564   0.2666   0.2710
     0.2776   0.2876   0.2962   0.3042   0.3137   0.3186   0.3275   0.3339
     0.3392   0.3458   0.3549   0.3627   0.3706   0.3714   0.3908   0.3972
     0.4036   0.4068   0.4191   0.4225   0.4280   0.4304   0.4339   0.4447
     0.4530   0.4594   0.4628   0.4716   0.4816   0.4848   0.4896   0.5044
     0.5097   0.5134   0.5192   0.5302   0.5339   0.5424   0.5486   0.5685
     0.5746   0.5862   0.5905   0.5995   0.6055   0.6138   0.6190   0.6261
     0.6414   0.6461   0.6589   0.6682   0.6739   0.6821   0.6944   0.6972
     0.7068   0.7226   0.7291   0.7425   0.7489   0.7496   0.7605   0.7714
     0.7771   0.7801   0.7867   0.7953   0.8047   0.8129   0.8211   0.8293
     0.8376   0.8519   0.8585   0.8628   0.8724   0.8826   0.8856   0.8974
     0.9082   0.9143   0.9228   0.9321   0.9347   0.9432   0.9490   0.9768
     0.9837   0.9919   1.0031   1.0108   1.0124   1.0209   1.0252   1.0325
     1.0409   1.0511   1.0580   1.0663   1.0762   1.0802   1.0928   1.0983
     1.1025   1.1258   1.1312   1.1367   1.1396   1.1458   1.1531   1.1637
     1.1703   1.1724   1.1775   1.1858   1.1946   1.2056   1.2213   1.2232
     1.2304   1.2384   1.2421   1.2530   1.2639   1.2754   1.2872   1.2906
     1.3059   1.3070   1.3122   1.3155   1.3205   1.3332   1.3387   1.3566
     1.3616   1.3770   1.3790   1.3853   1.3916   1.3937   1.4026   1.4110
     1.4187   1.4242   1.4392   1.4405   1.4556   1.4615   1.4642   1.4691
     1.4728   1.4772   1.4815   1.4956   1.4984   1.5102   1.5185   1.5234
     1.5279   1.5344   1.5478   1.5611   1.5644   1.5682   1.5719   1.5824
     1.5879   1.5954   1.5977   1.6016   1.6100   1.6177   1.6261   1.6301
     1.6379   1.6427   1.6584   1.6592   1.6654   1.6759   1.6814   1.6870
     1.6931   1.7017   1.7083   1.7107   1.7195   1.7228   1.7341   1.7393
     1.7420   1.7487   1.7587   1.7677   1.7778   1.7802   1.7868   1.7934
     1.7969   1.8004   1.8031   1.8147   1.8183   1.8204   1.8251   1.8380
     1.8426   1.8481   1.8501   1.8543   1.8615   1.8655   1.8680   1.8801
     1.8823   1.8851   1.9001   1.9092   1.9123   1.9166   1.9228   1.9292
     1.9354   1.9407   1.9449   1.9597   1.9664   1.9676   1.9714   1.9798
     1.9906   1.9964   2.0015   2.0064   2.0076   2.0255   2.0320   2.0401
     2.0441   2.0539   2.0573   2.0634   2.0732   2.0771   2.0821   2.0897
     2.0964   2.0987   2.1024   2.1066   2.1209   2.1289   2.1372   2.1393
     2.1433   2.1498   2.1636   2.1700   2.1742   2.1798   2.1864   2.1978
     2.2050   2.2080   2.2148   2.2212   2.2282   2.2341   2.2370   2.2460
     2.2532   2.2594   2.2719   2.2871   2.2937   2.3014   2.3154   2.3190
     2.3203   2.3426   2.3500   2.3742   2.3906   2.3960   2.4004   2.4103
     2.4245   2.4324   2.4474   2.4584   2.4702   2.4758   2.4941   2.5033
     2.5161   2.5473   2.5533   2.5677   2.5910   2.6359   2.6459   2.6706
     2.6835   2.6846   2.6991   2.7416   2.8031   2.8414   2.9158   2.9978
     3.0748   3.1296   3.1415   3.3289   5.0145   5.7599   5.8113   6.0992
     6.2926   6.3043   6.3259   6.3562   6.3974   6.4730   6.4862   6.5372
     6.5666   6.6200   6.6469   6.6519   6.6808   6.6878   6.7077   6.7172
     6.7345   6.7510   6.7664   6.7736   6.7879   6.8062   6.8213   6.8299
     6.8363   6.8482   6.8527   6.8617   6.8733   6.8842   6.9026   6.9110
     6.9239   6.9392   6.9465   6.9526   6.9589   6.9718   6.9785   6.9836
     6.9847   7.0036   7.0122   7.0145   7.0154   7.0247   7.0376   7.0384
     7.0448   7.0454   7.0516   7.0625   7.0661   7.0682   7.0695   7.0786
     7.0865   7.0912   7.0916   7.0973   7.1023   7.1087   7.1118   7.1164
     7.1236   7.1254   7.1350   7.1354   7.1393   7.1437   7.1446   7.1519
     7.1537   7.1624   7.1647   7.1665   7.1727   7.1826   7.1920   7.1948
     7.1966   7.2011   7.2022   7.2072   7.2119   7.2126   7.2168   7.2235
     7.2249   7.2308   7.2378   7.2406   7.2410   7.2460   7.2505   7.2555
     7.2576   7.2613   7.2677   7.2711   7.2763   7.2805   7.2839   7.2878
     7.2909   7.2915   7.2955   7.2974   7.3018   7.3046   7.3154   7.3204
     7.3254   7.3289   7.3345   7.3375   7.3390   7.3442   7.3463   7.3495
     7.3528   7.3546   7.3590   7.3606   7.3694   7.3703   7.3738   7.3750
     7.3803   7.3815   7.3852   7.3866   7.3922   7.3960   7.4009   7.4034
     7.4041   7.4067   7.4106   7.4126   7.4190   7.4213   7.4243   7.4295
     7.4360   7.4382   7.4424   7.4432   7.4451   7.4522   7.4535   7.4558
     7.4624   7.4637   7.4673   7.4722   7.4731   7.4740   7.4781   7.4833
     7.4844   7.4883   7.4938   7.4978   7.5018   7.5084   7.5154   7.5156
     7.5205   7.5235   7.5272   7.5316   7.5345   7.5446   7.5465   7.5478

     the Fermi energy is     4.2636 ev

!    total energy              =  -10980.26126646 Ry
     estimated scf accuracy    <          8.9E-10 Ry
     smearing contrib. (-TS)   =       0.00000000 Ry
     internal energy E=F+TS    =  -10980.26126646 Ry

     The total energy is F=E-TS. E is the sum of the following terms:
     one-electron contribution = -262688.96732513 Ry
     hartree contribution      =  131920.01226333 Ry
     xc contribution           =   -2580.51245156 Ry
     ewald contribution        =  122369.21816276 Ry
     electric field correction =      -0.01191586 Ry

     convergence has been achieved in  23 iterations

     Forces acting on atoms (cartesian axes, Ry/au):

     atom    1 type  1   force =    -0.00085118   -0.00037000    0.00174776
     atom    2 type  1   force =     0.00026853   -0.00079172    0.00156460
     atom    3 type  1   force =     0.00101238   -0.00022997    0.00157306
     atom    4 type  1   force =     0.00040144    0.00048849    0.00148061
     atom    5 type  1   force =    -0.00071622    0.00028990    0.00107683
     atom    6 type  1   force =    -0.00052147    0.00003894    0.00096992
     atom    7 type  1   force =     0.00053182   -0.00025781    0.00094075
     atom    8 type  1   force =    -0.00079072   -0.00025386    0.00160218
     atom    9 type  1   force =     0.00058597    0.00035350    0.00134771
     atom   10 type  1   force =    -0.00031943   -0.00005804    0.00195601
     atom   11 type  1   force =     0.00042418   -0.00001103    0.00090189
     atom   12 type  1   force =    -0.00019904   -0.00067365    0.00137279
     atom   13 type  1   force =    -0.00000982    0.00026465    0.00149258
     atom   14 type  1   force =    -0.00021846    0.00049580    0.00187289
     atom   15 type  1   force =     0.00043084   -0.00054185    0.00147101
     atom   16 type  1   force =     0.00038235    0.00027271    0.00185295
     atom   17 type  1   force =    -0.00079343    0.00010700    0.00200970
     atom   18 type  1   force =     0.00023263   -0.00007909    0.00136933
     atom   19 type  1   force =     0.00025413   -0.00041817    0.00120382
     atom   20 type  1   force =     0.00015480    0.00031693    0.00113409
     atom   21 type  1   force =     0.00017745   -0.00048878    0.00097330
     atom   22 type  1   force =     0.00011187    0.00071983    0.00185167
     atom   23 type  1   force =    -0.00025628   -0.00071752    0.00175949
     atom   24 type  1   force =    -0.00013894    0.00028251    0.00224961
     atom   25 type  1   force =     0.00011859   -0.00007823    0.00128750
     atom   26 type  1   force =     0.00054663    0.00042018    0.00126651
     atom   27 type  1   force =    -0.00064115    0.00022360    0.00180677
     atom   28 type  1   force =    -0.00054284   -0.00050557    0.00145425
     atom   29 type  1   force =    -0.00000581   -0.00064111    0.00179341
     atom   30 type  1   force =     0.00052857   -0.00030143    0.00134435
     atom   31 type  1   force =    -0.00006711    0.00071312    0.00221567
     atom   32 type  1   force =    -0.00010096   -0.00016337    0.00146127
     atom   33 type  1   force =     0.00030634   -0.00016999    0.00101287
     atom   34 type  1   force =    -0.00014210   -0.00053366    0.00131096
     atom   35 type  1   force =     0.00028100    0.00014726    0.00098087
     atom   36 type  1   force =    -0.00074825   -0.00019177    0.00160181
     atom   37 type  1   force =     0.00063092    0.00043041    0.00173363
     atom   38 type  1   force =    -0.00040587   -0.00003726    0.00232975
     atom   39 type  1   force =     0.00011911   -0.00007232    0.00142551
     atom   40 type  1   force =    -0.00012300   -0.00084789    0.00136317
     atom   41 type  1   force =     0.00032257    0.00077737    0.00152414
     atom   42 type  1   force =    -0.00032792    0.00059946    0.00190681
     atom   43 type  1   force =     0.00051112   -0.00046634    0.00132030
     atom   44 type  1   force =     0.00057077    0.00026954    0.00169632
     atom   45 type  1   force =    -0.00087658    0.00006270    0.00195851
     atom   46 type  1   force =     0.00009659    0.00008444    0.00154993
     atom   47 type  1   force =     0.00027318   -0.00042355    0.00103789
     atom   48 type  1   force =     0.00026714    0.00026313    0.00136918
     atom   49 type  1   force =     0.00014546   -0.00056857    0.00117487
     atom   50 type  1   force =     0.00014935    0.00072678    0.00190487
     atom   51 type  1   force =    -0.00040808   -0.00079640    0.00184205
     atom   52 type  1   force =    -0.00018854    0.00033717    0.00222244
     atom   53 type  1   force =     0.00006775   -0.00011382    0.00130051
     atom   54 type  1   force =     0.00056903    0.00057600    0.00092645
     atom   55 type  1   force =    -0.00054494    0.00017383    0.00192115
     atom   56 type  1   force =    -0.00044362   -0.00051112    0.00139189
     atom   57 type  1   force =    -0.00006682   -0.00051871    0.00181011
     atom   58 type  1   force =     0.00068365   -0.00029688    0.00127716
     atom   59 type  1   force =    -0.00005687    0.00065794    0.00213000
     atom   60 type  1   force =    -0.00009679   -0.00011203    0.00145136
     atom   61 type  1   force =     0.00028014   -0.00011437    0.00125640
     atom   62 type  1   force =    -0.00018713   -0.00057904    0.00117544
     atom   63 type  1   force =     0.00044649    0.00019550    0.00102900
     atom   64 type  1   force =    -0.00067906   -0.00034958    0.00141467
     atom   65 type  1   force =     0.00038401    0.00066200    0.00162841
     atom   66 type  1   force =    -0.00059391   -0.00003229    0.00237116
     atom   67 type  1   force =     0.00014803   -0.00033838    0.00161449
     atom   68 type  1   force =     0.00007769   -0.00092925    0.00149831
     atom   69 type  1   force =     0.00026769    0.00060708    0.00157137
     atom   70 type  1   force =    -0.00036672    0.00047448    0.00194427
     atom   71 type  1   force =    -0.00019432   -0.00001994    0.00174967
     atom   72 type  1   force =     0.00093942    0.00044576    0.00192388
     atom   73 type  1   force =    -0.00084339   -0.00033223    0.00218120
     atom   74 type  1   force =     0.00021447   -0.00003972    0.00131793
     atom   75 type  1   force =     0.00053400   -0.00048025    0.00095462
     atom   76 type  1   force =    -0.00019562   -0.00034796    0.00138870
     atom   77 type  1   force =     0.00064679   -0.00010959    0.00097785
     atom   78 type  1   force =    -0.00073219    0.00074667    0.00104896
     atom   79 type  1   force =     0.00046020   -0.00052835    0.00143946
     atom   80 type  1   force =     0.00055612   -0.00018941    0.00202536
     atom   81 type  1   force =     0.00006201    0.00014274    0.00164020
     atom   82 type  1   force =     0.00037429    0.00086141    0.00202958
     atom   83 type  1   force =    -0.00031191   -0.00054533    0.00257882
     atom   84 type  1   force =    -0.00085290   -0.00094811    0.00241450
     atom   85 type  2   force =     0.00190310    0.00166648   -0.00120840
     atom   86 type  2   force =     0.00274797   -0.00241308    0.00292583
     atom   87 type  2   force =    -0.00277160    0.00130435    0.00010071
     atom   88 type  2   force =    -0.00008032   -0.00235995    0.00652642
     atom   89 type  2   force =     0.00033556    0.00234463    0.00731142
     atom   90 type  2   force =    -0.00118863    0.00017753    0.00596607
     atom   91 type  2   force =     0.00042424   -0.00153205    0.00429766
     atom   92 type  2   force =    -0.00072336   -0.00079842    0.00715762
     atom   93 type  2   force =     0.00041789    0.00033216    0.00610147
     atom   94 type  2   force =     0.00028742    0.00037468    0.00671222
     atom   95 type  2   force =    -0.00067075    0.00018798    0.00518421
     atom   96 type  2   force =     0.00059391    0.00068494    0.00683736
     atom   97 type  2   force =     0.00043350    0.00037280    0.00519967
     atom   98 type  2   force =    -0.00008665    0.00070652    0.00550408
     atom   99 type  2   force =     0.00031182   -0.00102625    0.00490523
     atom  100 type  2   force =     0.00015849   -0.00055055    0.00611993
     atom  101 type  2   force =    -0.00023891    0.00088885    0.00536249
     atom  102 type  2   force =    -0.00024230   -0.00046431    0.00668646
     atom  103 type  2   force =    -0.00079491   -0.00084299    0.00519110
     atom  104 type  2   force =    -0.00043880   -0.00036385    0.00562062
     atom  105 type  2   force =     0.00103874   -0.00015814    0.00478585
     atom  106 type  2   force =     0.00011955    0.00039088    0.00643302
     atom  107 type  2   force =    -0.00078710   -0.00023715    0.00574543
     atom  108 type  2   force =     0.00032410    0.00077570    0.00650480
     atom  109 type  2   force =     0.00046901    0.00031830    0.00569755
     atom  110 type  2   force =     0.00012914    0.00055142    0.00588332
     atom  111 type  2   force =     0.00029997   -0.00081790    0.00461176
     atom  112 type  2   force =    -0.00001824   -0.00056264    0.00476382
     atom  113 type  2   force =     0.00047571    0.00082683    0.00472293
     atom  114 type  2   force =    -0.00010582   -0.00072124    0.00849489
     atom  115 type  2   force =    -0.00070889   -0.00017107    0.00551637
     atom  116 type  2   force =    -0.00094103   -0.00082601    0.00651016
     atom  117 type  2   force =     0.00099341   -0.00026692    0.00690227
     atom  118 type  2   force =    -0.00093589   -0.00334943    0.00851988
     atom  119 type  2   force =    -0.00109915    0.00085336    0.00684498
     atom  120 type  2   force =    -0.00048223    0.00081352    0.01240526
     atom  121 type  3   force =     0.01174394   -0.00044898   -0.00316033
     atom  122 type  3   force =    -0.00605721    0.00520228   -0.00318025
     atom  123 type  3   force =     0.01002522    0.00014133    0.00532511
     atom  124 type  3   force =    -0.00958389   -0.00365089    0.00490718
     atom  125 type  3   force =     0.00046316    0.00253595    0.00692143
     atom  126 type  3   force =    -0.00065866   -0.00338716    0.00744070
     atom  127 type  3   force =     0.00033144    0.00069839    0.00596669
     atom  128 type  3   force =    -0.00134161    0.00271933    0.00588601
     atom  129 type  3   force =    -0.00037508   -0.00068288    0.00538806
     atom  130 type  3   force =    -0.00036021    0.00063445    0.00594203
     atom  131 type  3   force =    -0.00034721    0.00107141    0.00791729
     atom  132 type  3   force =    -0.00133118   -0.00082432    0.00849791
     atom  133 type  3   force =     0.00081515    0.00099983    0.00706713
     atom  134 type  3   force =    -0.00078823   -0.00172473    0.00724986
     atom  135 type  3   force =     0.00070297   -0.00015912    0.00574718
     atom  136 type  3   force =    -0.00082478   -0.00026304    0.00616440
     atom  137 type  3   force =     0.00194114   -0.00021351    0.00684696
     atom  138 type  3   force =     0.00012995   -0.00004608    0.00633602
     atom  139 type  3   force =    -0.00044578    0.00145650    0.00664959
     atom  140 type  3   force =    -0.00085372   -0.00026880    0.00763264
     atom  141 type  3   force =    -0.00787865    0.00936828    0.02190782
     atom  142 type  3   force =     0.00410083   -0.00159292    0.02367377
     atom  143 type  3   force =     0.00106550    0.00739184    0.01016953
     atom  144 type  3   force =    -0.00194837   -0.00424761    0.00956539
     atom  145 type  4   force =     0.00248644   -0.00188185    0.00151164
     atom  146 type  4   force =    -0.00422523   -0.00012180   -0.00017448
     atom  147 type  4   force =     0.00718479   -0.00151336    0.00197253
     atom  148 type  4   force =    -0.00785297    0.00396105    0.00280545
     atom  149 type  4   force =     0.00235659   -0.00468191    0.00012160
     atom  150 type  4   force =    -0.00277694    0.00905790    0.00246623
     atom  151 type  4   force =    -0.01150606    0.01067563    0.00161326
     atom  152 type  4   force =     0.00920175   -0.01038140   -0.00027706
     atom  153 type  4   force =    -0.01020941   -0.01265679   -0.00102813
     atom  154 type  4   force =     0.00536548    0.00542018   -0.00253232
     atom  155 type  4   force =     0.00186706    0.00037319    0.00104413
     atom  156 type  4   force =    -0.00187687   -0.00061259    0.00077412
     atom  157 type  4   force =     0.00891866    0.00660227    0.00050973
     atom  158 type  4   force =    -0.01001213   -0.00482691   -0.00507307
     atom  159 type  4   force =    -0.00420953   -0.00256266   -0.00309068
     atom  160 type  4   force =     0.00419899    0.00187314   -0.00432742
     atom  161 type  4   force =     0.00326913    0.00015292   -0.00110433
     atom  162 type  4   force =    -0.00302745    0.00005451   -0.00292606
     atom  163 type  4   force =     0.00191764   -0.00274924   -0.00860559
     atom  164 type  4   force =    -0.00114313    0.00257002   -0.00759139
     atom  165 type  4   force =     0.00490480   -0.00005752   -0.00577242
     atom  166 type  4   force =    -0.00378867    0.00099568   -0.00592586
     atom  167 type  4   force =     0.00337629   -0.00102273   -0.01003344
     atom  168 type  4   force =    -0.00109110    0.00126058   -0.00943963
     atom  169 type  4   force =     0.00224510   -0.00096149    0.00200675
     atom  170 type  4   force =    -0.00256681    0.00195068    0.00303096
     atom  171 type  4   force =     0.00140219   -0.00414387    0.00253873
     atom  172 type  4   force =    -0.00136495    0.00448186    0.00150877
     atom  173 type  4   force =     0.00511353   -0.00012223    0.00044340
     atom  174 type  4   force =    -0.00584169    0.00047016    0.00103750
     atom  175 type  4   force =     0.00514472   -0.00308451   -0.00064383
     atom  176 type  4   force =    -0.00507171    0.00347647   -0.00187211
     atom  177 type  4   force =     0.00216403    0.00517741   -0.00118435
     atom  178 type  4   force =    -0.00301689   -0.00727747   -0.00144863
     atom  179 type  4   force =    -0.00139160   -0.00401251   -0.00124927
     atom  180 type  4   force =     0.00137853    0.00533618   -0.00070440
     atom  181 type  4   force =    -0.00278832   -0.00803228   -0.00437501
     atom  182 type  4   force =     0.00333181    0.00809466   -0.00538769
     atom  183 type  4   force =     0.00221058    0.00625613   -0.00595913
     atom  184 type  4   force =    -0.00242916   -0.00673781   -0.00549549
     atom  185 type  4   force =    -0.00553611    0.00368308   -0.00579277
     atom  186 type  4   force =     0.00673168   -0.00551590   -0.00666559
     atom  187 type  4   force =     0.00560722   -0.00100741   -0.00796659
     atom  188 type  4   force =    -0.00592091    0.00057025   -0.00778388
     atom  189 type  4   force =     0.00240075   -0.00542047   -0.00764042
     atom  190 type  4   force =    -0.00131273    0.00511235   -0.00790150
     atom  191 type  4   force =     0.00308374   -0.00172363   -0.01058361
     atom  192 type  4   force =    -0.00267434    0.00091615   -0.01016400
     atom  193 type  4   force =     0.00110898   -0.00146070    0.00165012
     atom  194 type  4   force =    -0.00158838    0.00168167    0.00197224
     atom  195 type  4   force =     0.00437610   -0.00009442    0.00186579
     atom  196 type  4   force =    -0.00454356    0.00030177    0.00125177
     atom  197 type  4   force =     0.00164091   -0.00429318    0.00029585
     atom  198 type  4   force =    -0.00174517    0.00447069    0.00059017
     atom  199 type  4   force =    -0.00586622    0.00433731   -0.00077332
     atom  200 type  4   force =     0.00464120   -0.00423588   -0.00069027
     atom  201 type  4   force =    -0.00507056   -0.00430462   -0.00135191
     atom  202 type  4   force =     0.00474766    0.00425155   -0.00123862
     atom  203 type  4   force =     0.00542751    0.00469094   -0.00074770
     atom  204 type  4   force =    -0.00528059   -0.00407917   -0.00114591
     atom  205 type  4   force =     0.00628471    0.00446829   -0.00439192
     atom  206 type  4   force =    -0.00593906   -0.00431926   -0.00453931
     atom  207 type  4   force =    -0.00599791   -0.00442993   -0.00561438
     atom  208 type  4   force =     0.00589929    0.00492290   -0.00527399
     atom  209 type  4   force =     0.00584166   -0.00362945   -0.00552537
     atom  210 type  4   force =    -0.00516771    0.00380511   -0.00553934
     atom  211 type  4   force =     0.00316261   -0.00600758   -0.00865224
     atom  212 type  4   force =    -0.00247114    0.00544308   -0.00715408
     atom  213 type  4   force =     0.00644384   -0.00081213   -0.00837581
     atom  214 type  4   force =    -0.00530769   -0.00000876   -0.00780311
     atom  215 type  4   force =     0.00286545   -0.00229073   -0.01173777
     atom  216 type  4   force =    -0.00177317    0.00235516   -0.01043800
     atom  217 type  4   force =     0.00216264   -0.00046718    0.00207361
     atom  218 type  4   force =    -0.00253246    0.00160574    0.00291790
     atom  219 type  4   force =     0.00129890   -0.00367850    0.00121871
     atom  220 type  4   force =    -0.00215389    0.00441728    0.00179055
     atom  221 type  4   force =     0.00451643    0.00005473    0.00018351
     atom  222 type  4   force =    -0.00534515    0.00053209    0.00096175
     atom  223 type  4   force =     0.00493593   -0.00313148   -0.00096814
     atom  224 type  4   force =    -0.00534474    0.00356012   -0.00135996
     atom  225 type  4   force =     0.00306850    0.00666017   -0.00140390
     atom  226 type  4   force =    -0.00280700   -0.00658149   -0.00149171
     atom  227 type  4   force =    -0.00219789   -0.00573521   -0.00105638
     atom  228 type  4   force =     0.00217865    0.00624299   -0.00122135
     atom  229 type  4   force =    -0.00242402   -0.00736441   -0.00462666
     atom  230 type  4   force =     0.00276701    0.00793810   -0.00512136
     atom  231 type  4   force =     0.00224042    0.00645974   -0.00535504
     atom  232 type  4   force =    -0.00241627   -0.00653310   -0.00519256
     atom  233 type  4   force =    -0.00596302    0.00370407   -0.00572565
     atom  234 type  4   force =     0.00602910   -0.00491826   -0.00619044
     atom  235 type  4   force =     0.00612698   -0.00088430   -0.00808912
     atom  236 type  4   force =    -0.00598511    0.00073989   -0.00744121
     atom  237 type  4   force =     0.00255975   -0.00565647   -0.00777071
     atom  238 type  4   force =    -0.00192169    0.00524685   -0.00812128
     atom  239 type  4   force =     0.00291151   -0.00162650   -0.01054711
     atom  240 type  4   force =    -0.00266164    0.00100155   -0.01002593
     atom  241 type  4   force =     0.00153902   -0.00180072    0.00234053
     atom  242 type  4   force =    -0.00202106    0.00210699    0.00270730
     atom  243 type  4   force =     0.00381962    0.00016188    0.00082686
     atom  244 type  4   force =    -0.00439787    0.00070869    0.00120078
     atom  245 type  4   force =     0.00160346   -0.00485763    0.00052719
     atom  246 type  4   force =    -0.00168913    0.00457906    0.00053918
     atom  247 type  4   force =    -0.00540699    0.00475508   -0.00014915
     atom  248 type  4   force =     0.00426321   -0.00408438   -0.00076771
     atom  249 type  4   force =    -0.00474644   -0.00445796   -0.00125315
     atom  250 type  4   force =     0.00454919    0.00433773   -0.00060979
     atom  251 type  4   force =     0.00532876    0.00468023   -0.00096100
     atom  252 type  4   force =    -0.00584199   -0.00456026   -0.00148529
     atom  253 type  4   force =     0.00673158    0.00407069   -0.00481132
     atom  254 type  4   force =    -0.00601109   -0.00413395   -0.00463622
     atom  255 type  4   force =    -0.00638665   -0.00457590   -0.00563844
     atom  256 type  4   force =     0.00564339    0.00365711   -0.00607749
     atom  257 type  4   force =     0.00622343   -0.00344817   -0.00548760
     atom  258 type  4   force =    -0.00559331    0.00406030   -0.00622679
     atom  259 type  4   force =     0.00331807   -0.00550616   -0.00886589
     atom  260 type  4   force =    -0.00226913    0.00487828   -0.00784314
     atom  261 type  4   force =     0.00642585   -0.00042424   -0.00801381
     atom  262 type  4   force =    -0.00613126    0.00007957   -0.00895148
     atom  263 type  4   force =     0.00260228   -0.00182380   -0.01215289
     atom  264 type  4   force =    -0.00136325    0.00177753   -0.00972850
     atom  265 type  4   force =    -0.00041626   -0.00074274   -0.00146355
     atom  266 type  4   force =     0.00026149    0.00053337   -0.00180613
     atom  267 type  4   force =     0.00122535   -0.00250413   -0.00003448
     atom  268 type  4   force =    -0.00139994    0.00323837   -0.00029437
     atom  269 type  4   force =     0.00155722    0.00097464   -0.00120347
     atom  270 type  4   force =    -0.00266465   -0.00046790   -0.00009377
     atom  271 type  4   force =     0.00300253   -0.00292551   -0.00296143
     atom  272 type  4   force =    -0.00549281    0.00356506   -0.00315415
     atom  273 type  4   force =     0.00280833    0.00772574   -0.00009468
     atom  274 type  4   force =    -0.00378682   -0.00864885   -0.00064318
     atom  275 type  4   force =    -0.00104165   -0.00223978   -0.00167820
     atom  276 type  4   force =     0.00205045    0.00426452   -0.00257182
     atom  277 type  4   force =    -0.00584577   -0.00744676   -0.00225746
     atom  278 type  4   force =     0.00502016    0.00704183   -0.00359372
     atom  279 type  4   force =    -0.00283573    0.00272815   -0.00424234
     atom  280 type  4   force =     0.00096358   -0.00791528   -0.00759995
     atom  281 type  4   force =    -0.00418012    0.00663962   -0.00671386
     atom  282 type  4   force =     0.00625607   -0.00733433   -0.00833506
     atom  283 type  4   force =     0.00947641    0.00124102   -0.00632302
     atom  284 type  4   force =    -0.00723655    0.00180921   -0.00611302
     atom  285 type  4   force =     0.00814781   -0.00602090   -0.01267508
     atom  286 type  4   force =    -0.00299713    0.00848962   -0.01046927
     atom  287 type  4   force =     0.01583370   -0.00665477   -0.01984495
     atom  288 type  4   force =    -0.01251559   -0.00221541   -0.02180991
     The non-local contrib.  to forces
     atom    1 type  1   force =    -0.05714823   -0.01994202   -0.08692476
     atom    2 type  1   force =    -0.01932218   -0.03326298   -0.10043909
     atom    3 type  1   force =     0.05725573   -0.02905615   -0.07733504
     atom    4 type  1   force =     0.01013275    0.02193672   -0.10004748
     atom    5 type  1   force =    -0.03987402   -0.00077085   -0.06934241
     atom    6 type  1   force =    -0.09171130   -0.00369454   -0.01450637
     atom    7 type  1   force =     0.06299109    0.00062634   -0.02241574
     atom    8 type  1   force =    -0.02128334   -0.01512042    0.05148512
     atom    9 type  1   force =     0.02756496    0.04289585    0.00830438
     atom   10 type  1   force =     0.00024457    0.06486307   -0.00150159
     atom   11 type  1   force =    -0.00499388   -0.01379148   -0.03088128
     atom   12 type  1   force =    -0.02923651   -0.03427910   -0.03997079
     atom   13 type  1   force =     0.04662070    0.00254298   -0.00721041
     atom   14 type  1   force =    -0.04979868   -0.00161493    0.02113640
     atom   15 type  1   force =     0.01084721   -0.05500510   -0.02758705
     atom   16 type  1   force =     0.02047408    0.05071141    0.03155099
     atom   17 type  1   force =    -0.04254614   -0.01981622    0.03716773
     atom   18 type  1   force =     0.00301344   -0.00791490   -0.01030891
     atom   19 type  1   force =     0.06336209   -0.00018801   -0.02157259
     atom   20 type  1   force =     0.00009011    0.05858814   -0.00279741
     atom   21 type  1   force =    -0.00507172   -0.04229195   -0.05785698
     atom   22 type  1   force =    -0.00737183    0.06545715    0.01845093
     atom   23 type  1   force =    -0.01109648   -0.05842574   -0.02869158
     atom   24 type  1   force =    -0.03911386   -0.00922650    0.03245413
     atom   25 type  1   force =    -0.00286729    0.00369936   -0.00491681
     atom   26 type  1   force =     0.05552994   -0.00400083   -0.01427976
     atom   27 type  1   force =    -0.02225014    0.05187809    0.02198524
     atom   28 type  1   force =    -0.01273738   -0.05157198   -0.03116889
     atom   29 type  1   force =    -0.04333162   -0.02744203    0.02538920
     atom   30 type  1   force =     0.04725958    0.00004023   -0.03532186
     atom   31 type  1   force =    -0.01049936    0.06461569    0.01742485
     atom   32 type  1   force =    -0.00049891   -0.00011994   -0.00178125
     atom   33 type  1   force =     0.00764061   -0.04366487   -0.04232025
     atom   34 type  1   force =    -0.04873072   -0.03284717    0.03224517
     atom   35 type  1   force =     0.06150600    0.01350257   -0.01709195
     atom   36 type  1   force =    -0.04414423   -0.02263395    0.04358239
     atom   37 type  1   force =     0.04968765    0.02607581   -0.02188862
[...]
     atom   55 type  1   force =    -0.00000010   -0.00000004   -0.00000002
     atom   56 type  1   force =    -0.00000030   -0.00000071    0.00000048
     atom   57 type  1   force =    -0.00000029   -0.00000007    0.00000084
     atom   58 type  1   force =     0.00000048    0.00000003    0.00000099
     atom   59 type  1   force =     0.00000042    0.00000009    0.00000076
     atom   60 type  1   force =    -0.00000033    0.00000058   -0.00000013
     atom   61 type  1   force =     0.00000008    0.00000030    0.00000015
     atom   62 type  1   force =    -0.00000030    0.00000029    0.00000072
     atom   63 type  1   force =    -0.00000001   -0.00000020    0.00000047
     atom   64 type  1   force =     0.00000037   -0.00000014    0.00000041
     atom   65 type  1   force =     0.00000023    0.00000014    0.00000120
     atom   66 type  1   force =     0.00000031    0.00000033    0.00000004
     atom   67 type  1   force =    -0.00000031    0.00000044   -0.00000049
     atom   68 type  1   force =     0.00000119    0.00000046   -0.00000004
     atom   69 type  1   force =    -0.00000087   -0.00000059   -0.00000026
     atom   70 type  1   force =    -0.00000047    0.00000005   -0.00000070
     atom   71 type  1   force =     0.00000114    0.00000007   -0.00000046
     atom   72 type  1   force =    -0.00000094   -0.00000112   -0.00000023
     atom   73 type  1   force =     0.00000155    0.00000091    0.00000016
     atom   74 type  1   force =    -0.00000193   -0.00000056   -0.00000087
     atom   75 type  1   force =    -0.00000042    0.00000057   -0.00000098
     atom   76 type  1   force =     0.00000161    0.00000127    0.00000073
     atom   77 type  1   force =    -0.00000086   -0.00000118    0.00000036
     atom   78 type  1   force =     0.00000024   -0.00000041   -0.00000085
     atom   79 type  1   force =     0.00000121   -0.00000043   -0.00000194
     atom   80 type  1   force =    -0.00000039   -0.00000004   -0.00000138
     atom   81 type  1   force =     0.00000015    0.00000046   -0.00000134
     atom   82 type  1   force =    -0.00000044    0.00000323   -0.00000213
     atom   83 type  1   force =     0.00000023    0.00000036   -0.00000071
     atom   84 type  1   force =    -0.00000038   -0.00000171   -0.00000085
     atom   85 type  2   force =    -0.00000194   -0.00000080    0.00000202
     atom   86 type  2   force =     0.00000354   -0.00000185    0.00000536
     atom   87 type  2   force =    -0.00000553    0.00000111    0.00000152
     atom   88 type  2   force =    -0.00000017   -0.00000456    0.00000211
     atom   89 type  2   force =     0.00000458    0.00000337    0.00000268
     atom   90 type  2   force =    -0.00000123   -0.00000352    0.00000252
     atom   91 type  2   force =     0.00000345    0.00000418    0.00000262
     atom   92 type  2   force =    -0.00000197    0.00000089    0.00000128
     atom   93 type  2   force =     0.00000036    0.00000280   -0.00000103
     atom   94 type  2   force =    -0.00000208   -0.00000060    0.00000469
     atom   95 type  2   force =     0.00000383   -0.00000116    0.00000350
     atom   96 type  2   force =     0.00000158   -0.00000106    0.00000070
     atom   97 type  2   force =    -0.00000101   -0.00000107    0.00000524
     atom   98 type  2   force =     0.00000023   -0.00000302    0.00000610
     atom   99 type  2   force =    -0.00000201    0.00000290    0.00000598
     atom  100 type  2   force =     0.00000211    0.00000181    0.00000519
     atom  101 type  2   force =     0.00000152   -0.00000213    0.00000706
     atom  102 type  2   force =    -0.00000026    0.00000040    0.00000341
     atom  103 type  2   force =     0.00000030    0.00000076    0.00000855
     atom  104 type  2   force =     0.00000327   -0.00000183    0.00000834
     atom  105 type  2   force =    -0.00000310    0.00000051    0.00000755
     atom  106 type  2   force =    -0.00000251    0.00000112    0.00000654
     atom  107 type  2   force =     0.00000301   -0.00000150    0.00000633
     atom  108 type  2   force =     0.00000114   -0.00000022    0.00000317
     atom  109 type  2   force =    -0.00000038    0.00000100    0.00000627
     atom  110 type  2   force =    -0.00000094   -0.00000064    0.00000325
     atom  111 type  2   force =     0.00000069   -0.00000034    0.00000276
     atom  112 type  2   force =     0.00000112    0.00000226    0.00000348
     atom  113 type  2   force =    -0.00000165   -0.00000219    0.00000435
     atom  114 type  2   force =     0.00000157   -0.00000204   -0.00000508
     atom  115 type  2   force =     0.00000006   -0.00000010    0.00000711
     atom  116 type  2   force =     0.00000425   -0.00000109    0.00000395
     atom  117 type  2   force =    -0.00000480    0.00000268    0.00000164
     atom  118 type  2   force =    -0.00000248    0.00000448    0.00000182
     atom  119 type  2   force =     0.00000313   -0.00000211    0.00000356
     atom  120 type  2   force =     0.00000339    0.00000161   -0.00000559
     atom  121 type  3   force =    -0.00000068   -0.00000964    0.00000152
     atom  122 type  3   force =    -0.00000010    0.00000365    0.00000693
     atom  123 type  3   force =    -0.00000174    0.00000497    0.00000761
     atom  124 type  3   force =     0.00000307   -0.00000144    0.00001071
     atom  125 type  3   force =    -0.00000191   -0.00000331    0.00000121
     atom  126 type  3   force =     0.00000217    0.00000334    0.00000388
     atom  127 type  3   force =    -0.00000189   -0.00000219    0.00000048
     atom  128 type  3   force =     0.00000037    0.00000459    0.00000444
     atom  129 type  3   force =    -0.00000142   -0.00000246    0.00001123
     atom  130 type  3   force =    -0.00000242    0.00000104    0.00001112
     atom  131 type  3   force =    -0.00000243   -0.00000376    0.00000645
     atom  132 type  3   force =     0.00000073    0.00000449    0.00000533
     atom  133 type  3   force =     0.00000072   -0.00000541    0.00000341
     atom  134 type  3   force =     0.00000014    0.00000468    0.00000428
     atom  135 type  3   force =    -0.00000293    0.00000012    0.00000958
     atom  136 type  3   force =     0.00000312    0.00000251    0.00000821
     atom  137 type  3   force =    -0.00000013   -0.00000112    0.00000568
     atom  138 type  3   force =    -0.00000165   -0.00000243    0.00000315
     atom  139 type  3   force =     0.00000080   -0.00000144    0.00000329
     atom  140 type  3   force =    -0.00000057    0.00000426    0.00000267
     atom  141 type  3   force =     0.00000346   -0.00000873   -0.00000507
     atom  142 type  3   force =    -0.00000967    0.00000438   -0.00001375
     atom  143 type  3   force =    -0.00000254   -0.00000547    0.00000718
     atom  144 type  3   force =     0.00000468    0.00000442    0.00001190
     atom  145 type  4   force =    -0.00000516    0.00000492   -0.00000368
     atom  146 type  4   force =     0.00000502   -0.00000194   -0.00000058
     atom  147 type  4   force =    -0.00000305   -0.00000247   -0.00000369
     atom  148 type  4   force =     0.00000249   -0.00000115   -0.00000296
     atom  149 type  4   force =    -0.00000241    0.00000232    0.00000115
     atom  150 type  4   force =     0.00000334   -0.00000495   -0.00000229
     atom  151 type  4   force =     0.00000355   -0.00000686   -0.00000124
     atom  152 type  4   force =    -0.00000185    0.00000611    0.00000027
     atom  153 type  4   force =     0.00000413    0.00000614   -0.00000053
     atom  154 type  4   force =    -0.00000408   -0.00000615    0.00000090
     atom  155 type  4   force =    -0.00000851   -0.00000190    0.00000046
     atom  156 type  4   force =     0.00000426    0.00000054    0.00000257
     atom  157 type  4   force =    -0.00000223   -0.00000241    0.00000138
     atom  158 type  4   force =     0.00000794    0.00000597    0.00000443
     atom  159 type  4   force =     0.00000090    0.00000457    0.00000506
     atom  160 type  4   force =    -0.00000322   -0.00000636    0.00000536
     atom  161 type  4   force =    -0.00000429    0.00000143    0.00000623
     atom  162 type  4   force =     0.00000288   -0.00000354    0.00000697
     atom  163 type  4   force =    -0.00000542    0.00000528    0.00000675
     atom  164 type  4   force =     0.00000297   -0.00000139    0.00000530
     atom  165 type  4   force =    -0.00000054    0.00000053    0.00000564
     atom  166 type  4   force =     0.00000211   -0.00000263    0.00000640
     atom  167 type  4   force =    -0.00000032    0.00000193    0.00000764
     atom  168 type  4   force =    -0.00000011   -0.00000057    0.00000987
     atom  169 type  4   force =    -0.00000181    0.00000223   -0.00000110
     atom  170 type  4   force =     0.00000309   -0.00000205   -0.00000275
     atom  171 type  4   force =    -0.00000244    0.00000430   -0.00000308
     atom  172 type  4   force =     0.00000061   -0.00000269   -0.00000252
     atom  173 type  4   force =    -0.00000408   -0.00000140   -0.00000055
     atom  174 type  4   force =     0.00000541    0.00000104   -0.00000127
     atom  175 type  4   force =    -0.00000251   -0.00000004   -0.00000132
     atom  176 type  4   force =     0.00000296   -0.00000136    0.00000063
     atom  177 type  4   force =    -0.00000151   -0.00000347   -0.00000094
     atom  178 type  4   force =     0.00000044    0.00000142    0.00000054
     atom  179 type  4   force =     0.00000267    0.00000486   -0.00000040
     atom  180 type  4   force =    -0.00000208   -0.00000309    0.00000053
     atom  181 type  4   force =     0.00000065    0.00000317    0.00000200
     atom  182 type  4   force =    -0.00000190   -0.00000506    0.00000370
     atom  183 type  4   force =    -0.00000092   -0.00000272   -0.00000006
     atom  184 type  4   force =     0.00000132    0.00000410    0.00000255
     atom  185 type  4   force =     0.00000275   -0.00000202    0.00000197
     atom  186 type  4   force =    -0.00000276    0.00000327    0.00000231
     atom  187 type  4   force =    -0.00000450    0.00000106    0.00000458
     atom  188 type  4   force =     0.00000343   -0.00000101    0.00000303
     atom  189 type  4   force =    -0.00000124    0.00000306    0.00000373
     atom  190 type  4   force =     0.00000215   -0.00000278    0.00000556
     atom  191 type  4   force =    -0.00000244    0.00000068    0.00000561
     atom  192 type  4   force =     0.00000190   -0.00000040    0.00000611
     atom  193 type  4   force =    -0.00000104    0.00000153   -0.00000128
     atom  194 type  4   force =     0.00000167   -0.00000163   -0.00000198
     atom  195 type  4   force =    -0.00000258   -0.00000011   -0.00000092
     atom  196 type  4   force =     0.00000129   -0.00000012   -0.00000058
     atom  197 type  4   force =    -0.00000177    0.00000320   -0.00000016
     atom  198 type  4   force =     0.00000115   -0.00000249    0.00000031
     atom  199 type  4   force =     0.00000308   -0.00000284    0.00000093
     atom  200 type  4   force =    -0.00000144    0.00000216    0.00000110
     atom  201 type  4   force =     0.00000276    0.00000294    0.00000173
     atom  202 type  4   force =    -0.00000199   -0.00000269    0.00000183
     atom  203 type  4   force =    -0.00000308   -0.00000330    0.00000218
     atom  204 type  4   force =     0.00000270    0.00000309    0.00000156
     atom  205 type  4   force =    -0.00000333   -0.00000170    0.00000295
     atom  206 type  4   force =     0.00000415    0.00000282    0.00000295
     atom  207 type  4   force =     0.00000162    0.00000362    0.00000323
     atom  208 type  4   force =    -0.00000254   -0.00000335    0.00000332
     atom  209 type  4   force =    -0.00000227    0.00000304    0.00000445
     atom  210 type  4   force =     0.00000120   -0.00000316    0.00000382
     atom  211 type  4   force =    -0.00000187    0.00000246    0.00000542
     atom  212 type  4   force =     0.00000220   -0.00000374    0.00000438
     atom  213 type  4   force =    -0.00000260    0.00000013    0.00000506
     atom  214 type  4   force =     0.00000269    0.00000008    0.00000554
     atom  215 type  4   force =    -0.00000207    0.00000267    0.00000720
     atom  216 type  4   force =     0.00000052   -0.00000191    0.00000791
     atom  217 type  4   force =    -0.00000140    0.00000113    0.00000207
     atom  218 type  4   force =     0.00000170   -0.00000091    0.00000185
     atom  219 type  4   force =     0.00000142    0.00000090    0.00000154
     atom  220 type  4   force =     0.00000042   -0.00000056    0.00000223
     atom  221 type  4   force =    -0.00000148   -0.00000114    0.00000213
     atom  222 type  4   force =     0.00000119    0.00000018    0.00000160
     atom  223 type  4   force =    -0.00000245   -0.00000117    0.00000380
     atom  224 type  4   force =     0.00000233    0.00000168    0.00000313
     atom  225 type  4   force =    -0.00000135   -0.00000154    0.00000320
     atom  226 type  4   force =     0.00000103    0.00000086    0.00000379
     atom  227 type  4   force =     0.00000015    0.00000241    0.00000363
     atom  228 type  4   force =    -0.00000121   -0.00000285    0.00000314
     atom  229 type  4   force =     0.00000205    0.00000127    0.00000181
     atom  230 type  4   force =    -0.00000164   -0.00000099    0.00000220
     atom  231 type  4   force =    -0.00000216   -0.00000098    0.00000375
     atom  232 type  4   force =     0.00000231    0.00000212    0.00000328
     atom  233 type  4   force =     0.00000159   -0.00000180    0.00000387
     atom  234 type  4   force =    -0.00000135    0.00000115    0.00000432
     atom  235 type  4   force =    -0.00000255    0.00000213    0.00000419
     atom  236 type  4   force =     0.00000291   -0.00000162    0.00000258
     atom  237 type  4   force =    -0.00000163    0.00000106    0.00000389
     atom  238 type  4   force =     0.00000150   -0.00000107    0.00000439
     atom  239 type  4   force =    -0.00000142   -0.00000208    0.00000342
     atom  240 type  4   force =     0.00000016    0.00000236    0.00000433
     atom  241 type  4   force =     0.00000133    0.00000062    0.00000144
     atom  242 type  4   force =    -0.00000119   -0.00000058    0.00000110
     atom  243 type  4   force =    -0.00000095   -0.00000109   -0.00000103
     atom  244 type  4   force =     0.00000038   -0.00000191   -0.00000054
     atom  245 type  4   force =    -0.00000070    0.00000218    0.00000044
     atom  246 type  4   force =     0.00000156   -0.00000012   -0.00000005
     atom  247 type  4   force =     0.00000104   -0.00000061    0.00000060
     atom  248 type  4   force =    -0.00000123   -0.00000030    0.00000016
     atom  249 type  4   force =     0.00000113    0.00000087    0.00000055
     atom  250 type  4   force =    -0.00000005   -0.00000072    0.00000057
     atom  251 type  4   force =    -0.00000020   -0.00000020    0.00000153
     atom  252 type  4   force =     0.00000004    0.00000265    0.00000096
     atom  253 type  4   force =    -0.00000170   -0.00000008    0.00000101
     atom  254 type  4   force =     0.00000151    0.00000035    0.00000109
     atom  255 type  4   force =     0.00000061    0.00000022   -0.00000035
     atom  256 type  4   force =    -0.00000148   -0.00000146   -0.00000041
     atom  257 type  4   force =     0.00000029    0.00000107    0.00000122
     atom  258 type  4   force =     0.00000076   -0.00000245   -0.00000042
     atom  259 type  4   force =    -0.00000002    0.00000070    0.00000145
     atom  260 type  4   force =    -0.00000034   -0.00000050    0.00000098
     atom  261 type  4   force =    -0.00000293   -0.00000113    0.00000084
     atom  262 type  4   force =     0.00000238    0.00000044    0.00000240
     atom  263 type  4   force =    -0.00000180    0.00000121    0.00000299
     atom  264 type  4   force =     0.00000205    0.00000002    0.00000309
     atom  265 type  4   force =     0.00000080    0.00000084    0.00000471
     atom  266 type  4   force =     0.00000025   -0.00000171    0.00000140
     atom  267 type  4   force =     0.00000091    0.00000264   -0.00000040
     atom  268 type  4   force =    -0.00000041   -0.00000087    0.00000023
     atom  269 type  4   force =     0.00000102   -0.00000047   -0.00000134
     atom  270 type  4   force =    -0.00000453    0.00000051   -0.00000072
     atom  271 type  4   force =    -0.00000173   -0.00000420   -0.00000111
     atom  272 type  4   force =     0.00000330    0.00000358   -0.00000110
     atom  273 type  4   force =    -0.00000182   -0.00000047   -0.00000102
     atom  274 type  4   force =     0.00000165   -0.00000183   -0.00000128
     atom  275 type  4   force =    -0.00000308    0.00000014   -0.00000145
     atom  276 type  4   force =     0.00000094   -0.00000304   -0.00000098
     atom  277 type  4   force =    -0.00000229   -0.00000079   -0.00000328
     atom  278 type  4   force =     0.00000350    0.00000322   -0.00000436
     atom  279 type  4   force =    -0.00000088    0.00000133   -0.00000134
     atom  280 type  4   force =     0.00000243    0.00000233    0.00000016
     atom  281 type  4   force =     0.00000122   -0.00000209   -0.00000024
     atom  282 type  4   force =     0.00000089    0.00000259    0.00000025
     atom  283 type  4   force =     0.00000188    0.00000524   -0.00000346
     atom  284 type  4   force =     0.00000059   -0.00000398   -0.00000155
     atom  285 type  4   force =     0.00000025   -0.00000213    0.00000271
     atom  286 type  4   force =    -0.00000027    0.00000110    0.00000508
     atom  287 type  4   force =    -0.00000085   -0.00000235   -0.00000067
     atom  288 type  4   force =    -0.00000340    0.00000167   -0.00000690

     Total force =     0.124330     Total SCF correction =     0.000081

     Writing all to output data dir ./temp/0D0025Ha.save/

     init_run     :      5.80s CPU      5.00s WALL (       1 calls)
     electrons    :    460.48s CPU    389.26s WALL (       1 calls)
     forces       :      4.25s CPU      3.10s WALL (       1 calls)

     Called by init_run:
     wfcinit      :      2.94s CPU      2.88s WALL (       1 calls)
     potinit      :      0.91s CPU      0.48s WALL (       1 calls)
     hinit0       :      1.36s CPU      1.02s WALL (       1 calls)

     Called by electrons:
     c_bands      :    429.36s CPU    373.12s WALL (      23 calls)
     sum_band     :     29.19s CPU     14.71s WALL (      23 calls)
     v_of_rho     :      1.47s CPU      0.98s WALL (      24 calls)
     mix_rho      :      0.32s CPU      0.21s WALL (      23 calls)

     Called by c_bands:
     init_us_2    :      2.08s CPU      1.11s WALL (      47 calls)
     init_us_2:cp :      2.08s CPU      1.11s WALL (      47 calls)
     regterg      :    424.84s CPU    370.38s WALL (      37 calls)

     Called by *egterg:
     rdiaghg      :    123.70s CPU     70.71s WALL (     540 calls)
     h_psi        :    202.55s CPU    200.79s WALL (     541 calls)
     g_psi        :      0.70s CPU      0.35s WALL (     503 calls)

     Called by h_psi:
     h_psi:calbec :     41.54s CPU     41.50s WALL (     541 calls)
     vloc_psi     :    121.21s CPU    119.41s WALL (     541 calls)
     add_vuspsi   :     38.50s CPU     39.22s WALL (     541 calls)

     General routines
     calbec       :     42.88s CPU     42.82s WALL (     545 calls)
     fft          :      1.08s CPU      0.81s WALL (     200 calls)
     ffts         :      0.13s CPU      0.06s WALL (      23 calls)
     fftw         :    137.05s CPU    122.86s WALL (  131524 calls)

     Parallel routines

     PWSCF        :   8m 3.11s CPU   6m52.93s WALL


   This run was terminated on:  16:21:37  20Mar2025            

=------------------------------------------------------------------------------=
   JOB DONE.
=------------------------------------------------------------------------------=
