
     Program PWSCF v.7.2 starts on 20Mar2025 at 16: 0: 1 

     This program is part of the open-source Quantum ESPRESSO suite
     for quantum simulation of materials; please cite
         "P. Giannozzi et al., J. Phys.:Condens. Matter 21 395502 (2009);
         "P. Giannozzi et al., J. Phys.:Condens. Matter 29 465901 (2017);
         "P. Giannozzi et al., J. Chem. Phys. 152 154105 (2020);
          URL http://www.quantum-espresso.org", 
     in publications or presentations arising from this work. More details at
     http://www.quantum-espresso.org/quote

     Parallel version (MPI & OpenMP), running on     480 processor cores
     Number of MPI processes:               240
     Threads/MPI process:                     2

     MPI processes distributed on    10 nodes
     732520 MiB available memory on the printing compute node when the environment starts

     Reading input from LLZO_LaTermination_0D00Ha.scf.in

     Current dimensions of program PWSCF are:
     Max number of different atomic species (ntypx) = 10
     Max number of k-points (npk) =  40000
     Max angular momentum in pseudopotentials (lmaxx) =  4

     gamma-point specific algorithms are used

     R & G space division:  proc/nbgrp/npool/nimage =     240
     Subspace diagonalization in iterative solution of the eigenvalue problem:
     one sub-group per band group will be used
     ELPA distributed-memory algorithm (size of sub-group: 11* 11 procs)


     Parallelization info
     --------------------
     sticks:   dense  smooth     PW     G-vecs:    dense   smooth      PW
     Min          50      50     11                18754    18754    2312
     Max          52      52     14                18892    18892    2426
     Sum       12387   12387   3101              4520369  4520369  565145

     Using Slab Decomposition



     bravais-lattice index     =            0
     lattice parameter (alat)  =      21.3406  a.u.
     unit-cell volume          =   39187.6345 (a.u.)^3
     number of atoms/cell      =          288
     number of atomic types    =            4
     number of electrons       =      1800.00
     number of Kohn-Sham states=         1080
     kinetic-energy cutoff     =      90.0000  Ry
     charge density cutoff     =     360.0000  Ry
     scf convergence threshold =      1.0E-09
     mixing beta               =       0.7000
     number of iterations used =            8  plain     mixing
     Exchange-correlation= PBE
                           (   1   4   3   4   0   0   0)

     celldm(1)=  21.340634  celldm(2)=   0.000000  celldm(3)=   0.000000
     celldm(4)=   0.000000  celldm(5)=   0.000000  celldm(6)=   0.000000

     crystal axes: (cart. coord. in units of alat)
               a(1) = (   1.000000   0.000000   0.000000 )  
               a(2) = (  -0.316403   0.948624   0.000000 )  
               a(3) = (   0.000000   0.000000   4.250429 )  

     reciprocal axes: (cart. coord. in units 2 pi/alat)
               b(1) = (  1.000000  0.333539 -0.000000 )  
               b(2) = (  0.000000  1.054158  0.000000 )  
               b(3) = (  0.000000 -0.000000  0.235270 )  


     PseudoPot. # 1 for Li read from file:
     ./Li.upf
     MD5 check sum: 36b212ba84a3343c64836813e23b5a31
     Pseudo is Norm-conserving, Zval =  3.0
     Generated using ONCVPSP code by D. R. Hamann
     Using radial grid of 1938 points,  4 beta functions with: 
                l(1) =   0
                l(2) =   0
                l(3) =   1
                l(4) =   1

     PseudoPot. # 2 for La read from file:
     ./La.upf
     MD5 check sum: 94ac605e04917972278bb538f6bd832e
     Pseudo is Norm-conserving + core correction, Zval = 11.0
     Generated using ONCVPSP code by D. R. Hamann
     Using radial grid of 1816 points,  8 beta functions with: 
                l(1) =   0
                l(2) =   0
                l(3) =   1
                l(4) =   1
                l(5) =   2
                l(6) =   2
                l(7) =   3
                l(8) =   3

     PseudoPot. # 3 for Zr read from file:
     ./Zr.upf
     MD5 check sum: 7356faafce8c11995bde75aded518977
     Pseudo is Norm-conserving + core correction, Zval = 12.0
     Generated using ONCVPSP code by D. R. Hamann
     Using radial grid of 1612 points,  6 beta functions with: 
                l(1) =   0
                l(2) =   0
                l(3) =   1
                l(4) =   1
                l(5) =   2
                l(6) =   2

     PseudoPot. # 4 for O  read from file:
     ./O.upf
     MD5 check sum: f9f408bc39120c85e44a0bb1c57dbd9f
     Pseudo is Norm-conserving + core correction, Zval =  6.0
     Generated using ONCVPSP code by D. R. Hamann
     Using radial grid of  934 points,  5 beta functions with: 
                l(1) =   0
                l(2) =   0
                l(3) =   1
                l(4) =   1
                l(5) =   2

     atomic species   valence    mass     pseudopotential
        Li             3.00     6.90000     Li( 1.00)
        La            11.00   139.00000     La( 1.00)
        Zr            12.00    91.22400     Zr( 1.00)
        O              6.00    16.00000     O ( 1.00)

     No symmetry found



   Cartesian axes

     site n.     atom                  positions (alat units)
         1           Li  tau(   1) = (  -0.0401741   0.5314518   0.9528658  )
         2           Li  tau(   2) = (   0.1309308   0.0696081   0.9385469  )
         3           Li  tau(   3) = (   0.8538406   0.0434466   0.9666809  )
         4           Li  tau(   4) = (   0.7118945   0.5489094   1.0005721  )
         5           Li  tau(   5) = (  -0.2409594   0.7769992   1.0208612  )
         6           Li  tau(   6) = (   0.3459555   0.9486075   1.0723897  )
         7           Li  tau(   7) = (   0.1356213   0.5221967   1.0728849  )
         8           Li  tau(   8) = (  -0.1896788   0.9477617   1.1409935  )
         9           Li  tau(   9) = (   0.6170900   0.5210270   1.1890965  )
        10           Li  tau(  10) = (   0.2309895   0.6668810   1.2076216  )
        11           Li  tau(  11) = (   0.2165960   0.9161132   1.2242957  )
        12           Li  tau(  12) = (   0.4182676   0.5328995   1.2974048  )
        13           Li  tau(  13) = (   0.2942079   0.0022691   1.2965237  )
        14           Li  tau(  14) = (   0.1771489   0.4655346   1.2882004  )
        15           Li  tau(  15) = (   0.6393455   0.1375649   1.3415002  )
        16           Li  tau(  16) = (   0.1335419   0.1468095   1.3351564  )
        17           Li  tau(  17) = (   0.6320857   0.3742104   1.3490262  )
        18           Li  tau(  18) = (   0.0399456   0.3312435   1.4167569  )
        19           Li  tau(  19) = (   0.8171725   0.2454882   1.4305787  )
        20           Li  tau(  20) = (   0.5613585   0.5676589   1.4466564  )
        21           Li  tau(  21) = (  -0.1079433   0.8954757   1.5056956  )
        22           Li  tau(  22) = (   0.7056349   0.1025367   1.5792814  )
        23           Li  tau(  23) = (   0.0320763   0.4625938   1.6111084  )
        24           Li  tau(  24) = (  -0.2553978   0.7734398   1.6148849  )
        25           Li  tau(  25) = (   0.5413538   0.6917385   1.6240346  )
        26           Li  tau(  26) = (  -0.0635491   0.6739187   1.6619951  )
        27           Li  tau(  27) = (  -0.0532046   0.8916387   1.7146366  )
        28           Li  tau(  28) = (   0.4428583   0.8747493   1.7009824  )
        29           Li  tau(  29) = (   0.5612555   0.0651713   1.7472496  )
        30           Li  tau(  30) = (   0.4193567   0.5433533   1.7379959  )
        31           Li  tau(  31) = (   0.2128411   0.4645996   1.7790350  )
        32           Li  tau(  32) = (   0.3581659   0.1027038   1.8261314  )
        33           Li  tau(  33) = (   0.3737168   0.3226177   1.8347685  )
        34           Li  tau(  34) = (  -0.0137717   0.4956248   1.8308839  )
        35           Li  tau(  35) = (   0.7503689   0.0750828   1.8671986  )
        36           Li  tau(  36) = (   0.4481022   0.4998232   1.9550951  )
        37           Li  tau(  37) = (   0.2360226   0.0770414   2.0097381  )
        38           Li  tau(  38) = (   0.8478227   0.2280218   2.0167662  )
        39           Li  tau(  39) = (  -0.1413950   0.4617279   2.0265256  )
        40           Li  tau(  40) = (   0.0279178   0.0844800   2.0985060  )
        41           Li  tau(  41) = (   0.6418812   0.4963596   2.1045683  )
        42           Li  tau(  42) = (   0.8006875   0.0225167   2.1037308  )
        43           Li  tau(  43) = (  -0.0415310   0.6284323   2.1538031  )
        44           Li  tau(  44) = (   0.4593846   0.6267310   2.1528822  )
        45           Li  tau(  45) = (  -0.0515820   0.8631856   2.1612773  )
        46           Li  tau(  46) = (   0.3581290   0.8224719   2.2309911  )
        47           Li  tau(  47) = (   0.1405007   0.7382607   2.2406643  )
        48           Li  tau(  48) = (   0.1905771   0.1113115   2.2480655  )
        49           Li  tau(  49) = (   0.5237185   0.4442202   2.3019042  )
        50           Li  tau(  50) = (   0.0237434   0.5980741   2.3881179  )
        51           Li  tau(  51) = (   0.6650222   0.0049314   2.4262732  )
        52           Li  tau(  52) = (   0.3814689   0.3172837   2.4230060  )
        53           Li  tau(  53) = (   0.1743810   0.2345610   2.4327829  )
        54           Li  tau(  54) = (   0.5710180   0.2062794   2.4867857  )
        55           Li  tau(  55) = (   0.5744325   0.4303424   2.5199329  )
        56           Li  tau(  56) = (   0.0740953   0.4177703   2.5111206  )
        57           Li  tau(  57) = (  -0.1187133   0.5610496   2.5584903  )
        58           Li  tau(  58) = (   0.0519769   0.0928062   2.5487406  )
        59           Li  tau(  59) = (   0.8445231   0.0127362   2.5939746  )
        60           Li  tau(  60) = (   0.6735025   0.5957282   2.6343368  )
        61           Li  tau(  61) = (   0.6905210   0.8193168   2.6413502  )
        62           Li  tau(  62) = (   0.6141528   0.0352054   2.6511848  )
        63           Li  tau(  63) = (   0.0704674   0.5661842   2.6824947  )
        64           Li  tau(  64) = (   0.0798383   0.0473235   2.7647392  )
        65           Li  tau(  65) = (   0.5499762   0.5657113   2.8171637  )
        66           Li  tau(  66) = (   0.1662536   0.7290179   2.8267159  )
        67           Li  tau(  67) = (   0.4855838   0.0094029   2.8481367  )
        68           Li  tau(  68) = (   0.3401180   0.5827416   2.9065538  )
        69           Li  tau(  69) = (   0.2652705   0.0454758   2.9235969  )
        70           Li  tau(  70) = (   0.1217015   0.5209083   2.9105600  )
        71           Li  tau(  71) = (   0.5876259   0.1828756   2.9787643  )
        72           Li  tau(  72) = (   0.0617813   0.1805987   2.9756636  )
        73           Li  tau(  73) = (   0.6004570   0.4102551   2.9836354  )
        74           Li  tau(  74) = (  -0.0044596   0.3772326   3.0327479  )
        75           Li  tau(  75) = (   0.7948367   0.3024377   3.0594680  )
        76           Li  tau(  76) = (   0.5091677   0.6011066   3.0432121  )
        77           Li  tau(  77) = (  -0.1997955   0.9442241   3.0930330  )
        78           Li  tau(  78) = (   0.6580205   0.1960587   3.1845357  )
        79           Li  tau(  79) = (  -0.0412607   0.5050288   3.2200147  )
        80           Li  tau(  80) = (   0.6619108   0.8213569   3.2164610  )
        81           Li  tau(  81) = (   0.4667152   0.7100722   3.2487273  )
        82           Li  tau(  82) = (  -0.1334777   0.7277058   3.2617371  )
        83           Li  tau(  83) = (   0.1972213   0.0072415   3.3132217  )
        84           Li  tau(  84) = (   0.3841945   0.9459370   3.2958967  )
        85           La  tau(  85) = (   0.2479666   0.7487271   0.9240042  )
        86           La  tau(  86) = (   0.3750830   0.1032760   1.0320986  )
        87           La  tau(  87) = (   0.4108498   0.4413654   1.0291867  )
        88           La  tau(  88) = (   0.8806724   0.0952360   1.2177249  )
        89           La  tau(  89) = (  -0.1115144   0.4403914   1.2069898  )
        90           La  tau(  90) = (   0.3760646   0.2649240   1.3186865  )
        91           La  tau(  91) = (   0.7174323   0.7529258   1.3274736  )
        92           La  tau(  92) = (   0.3852939   0.8033441   1.4174621  )
        93           La  tau(  93) = (   0.0478718   0.6837298   1.4086100  )
        94           La  tau(  94) = (   0.5387887   0.3299230   1.6169527  )
        95           La  tau(  95) = (   0.1996293   0.2146087   1.6222216  )
        96           La  tau(  96) = (   0.2034911   0.7447059   1.7210685  )
        97           La  tau(  97) = (   0.8639961   0.2787414   1.7232570  )
        98           La  tau(  98) = (   0.7018434   0.5770634   1.8232028  )
        99           La  tau(  99) = (  -0.2970985   0.9351959   1.8305622  )
       100           La  tau( 100) = (   0.1948814   0.5804426   2.0269246  )
       101           La  tau( 101) = (   0.2008393   0.9361509   2.0269931  )
       102           La  tau( 102) = (   0.6942969   0.7614671   2.1289111  )
       103           La  tau( 103) = (   0.3560223   0.2917327   2.1280650  )
       104           La  tau( 104) = (   0.0159556   0.3485602   2.2304904  )
       105           La  tau( 105) = (   0.6801921   0.2308445   2.2312122  )
       106           La  tau( 106) = (  -0.1442088   0.8263428   2.4265752  )
       107           La  tau( 107) = (   0.5166062   0.7090018   2.4331518  )
       108           La  tau( 108) = (   0.8340010   0.2908115   2.5370335  )
       109           La  tau( 109) = (   0.1818851   0.7690818   2.5317492  )
       110           La  tau( 110) = (   0.3321930   0.1209856   2.6350903  )
       111           La  tau( 111) = (   0.3348582   0.4773195   2.6399246  )
       112           La  tau( 112) = (   0.8231528   0.1229007   2.8479358  )
       113           La  tau( 113) = (   0.8296707   0.4821995   2.8374207  )
       114           La  tau( 114) = (   0.3249933   0.3055389   2.9378795  )
       115           La  tau( 115) = (   0.6753111   0.7805866   2.9234142  )
       116           La  tau( 116) = (   0.3308863   0.8479971   3.0456944  )
       117           La  tau( 117) = (  -0.0074688   0.7242774   3.0356819  )
       118           La  tau( 118) = (   0.4847919   0.3992438   3.2352228  )
       119           La  tau( 119) = (   0.1520868   0.2500207   3.2277706  )
       120           La  tau( 120) = (   0.1491760   0.7643674   3.3264251  )
       121           Zr  tau( 121) = (   0.6377188   0.2615917   1.1116843  )
       122           Zr  tau( 122) = (   0.1174388   0.2619688   1.0910098  )
       123           Zr  tau( 123) = (   0.4878526   0.7432788   1.1127195  )
       124           Zr  tau( 124) = (  -0.0118360   0.7402248   1.0886267  )
       125           Zr  tau( 125) = (   0.9493535   0.0392864   1.5232742  )
       126           Zr  tau( 126) = (   0.7958436   0.5120100   1.5176883  )
       127           Zr  tau( 127) = (   0.4474616   0.0311370   1.5200999  )
       128           Zr  tau( 128) = (   0.2925957   0.5079530   1.5183259  )
       129           Zr  tau( 129) = (  -0.0498924   0.7555169   1.9267789  )
       130           Zr  tau( 130) = (   0.4498379   0.7560736   1.9266420  )
       131           Zr  tau( 131) = (   0.1077390   0.2831502   1.9269117  )
       132           Zr  tau( 132) = (   0.6092200   0.2826131   1.9249006  )
       133           Zr  tau( 133) = (   0.2663741   0.5278757   2.3322722  )
       134           Zr  tau( 134) = (   0.4263547   0.0549622   2.3305043  )
       135           Zr  tau( 135) = (   0.7661909   0.5279926   2.3318425  )
       136           Zr  tau( 136) = (   0.9236358   0.0541269   2.3323735  )
       137           Zr  tau( 137) = (   0.5807740   0.2999254   2.7412308  )
       138           Zr  tau( 138) = (   0.0797148   0.2994099   2.7383551  )
       139           Zr  tau( 139) = (   0.4219125   0.7757587   2.7384962  )
       140           Zr  tau( 140) = (  -0.0711412   0.7779923   2.7326979  )
       141           Zr  tau( 141) = (   0.8838133   0.0895808   3.1700434  )
       142           Zr  tau( 142) = (   0.7357321   0.5547446   3.1472268  )
       143           Zr  tau( 143) = (   0.3918753   0.0677421   3.1653210  )
       144           Zr  tau( 144) = (   0.2374013   0.5399984   3.1427109  )
       145           O   tau( 145) = (   0.4273855   0.8436099   0.9651490  )
       146           O   tau( 146) = (   0.0824292   0.6442089   0.9516886  )
       147           O   tau( 147) = (   0.5045727   0.2652518   0.9807854  )
       148           O   tau( 148) = (   0.2239161   0.2105859   0.9506815  )
       149           O   tau( 149) = (  -0.1014333   0.8834309   1.0067566  )
       150           O   tau( 150) = (   0.5577909   0.5941607   1.0322859  )
       151           O   tau( 151) = (   0.7494457   0.1356069   1.0524431  )
       152           O   tau( 152) = (   0.0171743   0.4030213   1.0406726  )
       153           O   tau( 153) = (   0.7280356   0.4147732   1.0831274  )
       154           O   tau( 154) = (   0.0126613   0.1121503   1.0480922  )
       155           O   tau( 155) = (   0.3212924   0.6382680   1.0707820  )
       156           O   tau( 156) = (   0.1522364   0.8556475   1.0656204  )
       157           O   tau( 157) = (  -0.1515598   0.6334951   1.0448072  )
       158           O   tau( 158) = (   0.6471026   0.8304250   1.1361875  )
       159           O   tau( 159) = (   0.2508743   0.3897829   1.1545287  )
       160           O   tau( 160) = (   0.5160530   0.1361178   1.1966360  )
       161           O   tau( 161) = (   0.5073038   0.3939765   1.2038700  )
       162           O   tau( 162) = (   0.2406841   0.1341097   1.1941272  )
       163           O   tau( 163) = (   0.3894770   0.8738009   1.2168197  )
       164           O   tau( 164) = (   0.0679953   0.6069637   1.2057346  )
       165           O   tau( 165) = (   0.0148968   0.2664882   1.2550713  )
       166           O   tau( 166) = (   0.7419805   0.2610841   1.2740031  )
       167           O   tau( 167) = (  -0.0793091   0.7998422   1.2561650  )
       168           O   tau( 168) = (   0.5142695   0.6692848   1.2867600  )
       169           O   tau( 169) = (   0.7120629   0.5281451   1.3489026  )
       170           O   tau( 170) = (   0.0344042   0.0151908   1.3568875  )
       171           O   tau( 171) = (   0.2666255   0.6046510   1.3601069  )
       172           O   tau( 172) = (   0.1714062   0.8648654   1.3751109  )
       173           O   tau( 173) = (   0.7887906   0.0709345   1.4308889  )
       174           O   tau( 174) = (  -0.0456162   0.4766592   1.4253234  )
       175           O   tau( 175) = (   0.2858863   0.0920937   1.4427768  )
       176           O   tau( 176) = (   0.4538073   0.4384712   1.4438990  )
       177           O   tau( 177) = (   0.2098197   0.3553652   1.4401462  )
       178           O   tau( 178) = (   0.5301429   0.1870787   1.4556395  )
       179           O   tau( 179) = (  -0.1547780   0.6971069   1.5008447  )
       180           O   tau( 180) = (   0.5945490   0.8028747   1.5065814  )
       181           O   tau( 181) = (  -0.0068685   0.2205628   1.5383633  )
       182           O   tau( 182) = (   0.7426216   0.3340107   1.5459333  )
       183           O   tau( 183) = (   0.0399908   0.8296294   1.5899910  )
       184           O   tau( 184) = (   0.3789678   0.6570843   1.5930099  )
       185           O   tau( 185) = (   0.2891978   0.9158865   1.6017976  )
       186           O   tau( 186) = (   0.1382820   0.5859127   1.5895691  )
       187           O   tau( 187) = (   0.6362398   0.5526996   1.6108003  )
       188           O   tau( 188) = (   0.1055337   0.0029184   1.6240961  )
       189           O   tau( 189) = (   0.4065014   0.1404890   1.6685327  )
       190           O   tau( 190) = (   0.3276682   0.4006998   1.6706198  )
       191           O   tau( 191) = (   0.8574166   0.0606502   1.6871912  )
       192           O   tau( 192) = (  -0.1206837   0.5058734   1.6873595  )
       193           O   tau( 193) = (   0.0748446   0.3609066   1.7569096  )
       194           O   tau( 194) = (   0.6583611   0.2018628   1.7601440  )
       195           O   tau( 195) = (  -0.1617902   0.7586617   1.7750471  )
       196           O   tau( 196) = (   0.5664267   0.7537696   1.7783762  )
       197           O   tau( 197) = (   0.5255665   0.4202697   1.8256546  )
       198           O   tau( 198) = (   0.1941281   0.1421395   1.8360412  )
       199           O   tau( 199) = (   0.0728304   0.6332688   1.8516382  )
       200           O   tau( 200) = (   0.3375721   0.8844472   1.8456956  )
       201           O   tau( 201) = (   0.0656870   0.8861457   1.8550115  )
       202           O   tau( 202) = (   0.3354542   0.6204574   1.8600583  )
       203           O   tau( 203) = (  -0.0472477   0.1800914   1.9001238  )
       204           O   tau( 204) = (   0.7686233   0.3809156   1.9053961  )
       205           O   tau( 205) = (   0.4483865   0.1861070   1.9411677  )
       206           O   tau( 206) = (   0.2649960   0.3880809   1.9432240  )
       207           O   tau( 207) = (   0.5709288   0.8839403   1.9944713  )
       208           O   tau( 208) = (  -0.1673537   0.6276893   1.9977306  )
       209           O   tau( 209) = (  -0.1654682   0.8820626   2.0083693  )
       210           O   tau( 210) = (   0.5600381   0.6235178   2.0052012  )
       211           O   tau( 211) = (   0.0245008   0.4227645   2.0207037  )
       212           O   tau( 212) = (   0.6934143   0.1416167   2.0188874  )
       213           O   tau( 213) = (   0.3325048   0.7614689   2.0732631  )
       214           O   tau( 214) = (   0.0600008   0.7567758   2.0811248  )
       215           O   tau( 215) = (   0.5600722   0.3542588   2.0917822  )
       216           O   tau( 216) = (   0.1457504   0.2075857   2.0956848  )
       217           O   tau( 217) = (   0.3424480   0.0663831   2.1616537  )
       218           O   tau( 218) = (   0.3499709   0.5045145   2.1651137  )
       219           O   tau( 219) = (   0.8907038   0.1580552   2.1773262  )
       220           O   tau( 220) = (   0.8085045   0.4187644   2.1847239  )
       221           O   tau( 221) = (   0.1059741   0.5637683   2.2383457  )
       222           O   tau( 222) = (   0.5853912   0.0192002   2.2375818  )
       223           O   tau( 223) = (   0.6054538   0.5901802   2.2525974  )
       224           O   tau( 224) = (  -0.2356788   0.9335534   2.2509666  )
       225           O   tau( 225) = (   0.5235546   0.8499673   2.2620540  )
       226           O   tau( 226) = (  -0.1502241   0.6836438   2.2648068  )
       227           O   tau( 227) = (   0.4759516   0.2367742   2.3122298  )
       228           O   tau( 228) = (   0.2252583   0.3452255   2.3158339  )
       229           O   tau( 229) = (   0.3089769   0.7106516   2.3507560  )
       230           O   tau( 230) = (   0.0598438   0.8236304   2.3555445  )
       231           O   tau( 231) = (   0.6748381   0.3761921   2.3982177  )
       232           O   tau( 232) = (   0.0096835   0.2052172   2.4050826  )
       233           O   tau( 233) = (  -0.0767336   0.4627083   2.4129477  )
       234           O   tau( 234) = (   0.7684597   0.1308599   2.4072604  )
       235           O   tau( 235) = (   0.2654941   0.0921704   2.4220922  )
       236           O   tau( 236) = (   0.4239097   0.4926305   2.4310885  )
       237           O   tau( 237) = (   0.7246502   0.6382534   2.4789915  )
       238           O   tau( 238) = (   0.6455974   0.8977877   2.4841063  )
       239           O   tau( 239) = (   0.1746452   0.5506560   2.4963779  )
       240           O   tau( 240) = (   0.5090804   0.0462714   2.5006341  )
       241           O   tau( 241) = (   0.3895869   0.8531902   2.5696702  )
       242           O   tau( 242) = (  -0.0222483   0.6973276   2.5697583  )
       243           O   tau( 243) = (   0.4682703   0.2986710   2.5875376  )
       244           O   tau( 244) = (   0.1963774   0.2930768   2.5898446  )
       245           O   tau( 245) = (  -0.1556603   0.9168492   2.6368487  )
       246           O   tau( 246) = (   0.5093213   0.6349919   2.6490719  )
       247           O   tau( 247) = (   0.6988948   0.1762794   2.6637520  )
       248           O   tau( 248) = (  -0.0306307   0.4300256   2.6567819  )
       249           O   tau( 249) = (   0.6941465   0.4300435   2.6652903  )
       250           O   tau( 250) = (  -0.0348807   0.1650300   2.6716964  )
       251           O   tau( 251) = (   0.2682703   0.6705035   2.7126025  )
       252           O   tau( 252) = (   0.0876737   0.8760775   2.7198171  )
       253           O   tau( 253) = (   0.7674728   0.6823684   2.7451133  )
       254           O   tau( 254) = (   0.5784280   0.8815986   2.7516547  )
       255           O   tau( 255) = (   0.2016423   0.4283146   2.8021403  )
       256           O   tau( 256) = (   0.4631313   0.1753190   2.8217422  )
       257           O   tau( 257) = (   0.4604479   0.4266897   2.8158828  )
       258           O   tau( 258) = (   0.1893437   0.1692683   2.8197750  )
       259           O   tau( 259) = (   0.3341957   0.9123330   2.8338235  )
       260           O   tau( 260) = (   0.0109518   0.6377609   2.8309482  )
       261           O   tau( 261) = (  -0.0405151   0.3044934   2.8830219  )
       262           O   tau( 262) = (   0.6919956   0.3036649   2.8916371  )
       263           O   tau( 263) = (  -0.1219692   0.8480587   2.8995149  )
       264           O   tau( 264) = (   0.4601571   0.7057095   2.9116319  )
       265           O   tau( 265) = (   0.6610157   0.5647212   2.9590270  )
       266           O   tau( 266) = (   0.9721176   0.0366668   2.9864638  )
       267           O   tau( 267) = (   0.2062559   0.6531552   2.9902705  )
       268           O   tau( 268) = (   0.1173061   0.9087102   3.0123843  )
       269           O   tau( 269) = (   0.7308552   0.1106778   3.0466528  )
       270           O   tau( 270) = (  -0.1039457   0.5145492   3.0462299  )
       271           O   tau( 271) = (   0.2352366   0.1314950   3.0693376  )
       272           O   tau( 272) = (   0.3974793   0.4778629   3.0590249  )
       273           O   tau( 273) = (   0.1584567   0.3955862   3.0575547  )
       274           O   tau( 274) = (   0.4783659   0.2212572   3.1116490  )
       275           O   tau( 275) = (  -0.2250217   0.7449031   3.1155313  )
       276           O   tau( 276) = (   0.5003556   0.8579194   3.1855030  )
       277           O   tau( 277) = (  -0.0398109   0.2555246   3.1385110  )
       278           O   tau( 278) = (   0.6721747   0.3781719   3.1448816  )
       279           O   tau( 279) = (  -0.0128929   0.8464739   3.2354956  )
       280           O   tau( 280) = (   0.3073175   0.6932600   3.2299859  )
       281           O   tau( 281) = (   0.2247218   0.9322135   3.2444881  )
       282           O   tau( 282) = (   0.0815148   0.6133238   3.2143656  )
       283           O   tau( 283) = (   0.5648201   0.5886521   3.2126606  )
       284           O   tau( 284) = (   0.0469442   0.0332460   3.2464786  )
       285           O   tau( 285) = (   0.3020974   0.1360316   3.3077066  )
       286           O   tau( 286) = (   0.2794488   0.4199818   3.2760468  )
       287           O   tau( 287) = (   0.7704661   0.1392517   3.2929744  )
       288           O   tau( 288) = (  -0.1679624   0.5739047   3.2927061  )

     number of k points=     1  Fermi-Dirac smearing, width (Ry)=  0.0000
                       cart. coord. in units 2pi/alat
        k(    1) = (   0.0000000   0.0000000   0.0000000), wk =   2.0000000

     Dense  grid:  2260185 G-vectors     FFT dimensions: ( 135, 135, 576)

     Estimated max dynamical RAM per process >     229.15 MB

     Estimated total dynamical RAM >      53.71 GB

     Initial potential from superposition of free atoms

     starting charge    1799.2393, renormalised to    1800.0000

     negative rho (up, down):  4.061E-04 0.000E+00

     Adding external electric field

     Computed dipole along edir(3) : 
        Dipole               -0.0004 Ry au,         -0.0010 Debye
        Dipole field         -0.0000 Ry au, 

        Potential amp.        0.0000 Ry
        Total length         72.5655 bohr

     Starting wfcs are 1344 atomic wfcs

     total cpu time spent up to now is        7.3 secs

     Self-consistent Calculation

     iteration #  1     ecut=    90.00 Ry     beta= 0.70
     Davidson diagonalization with overlap
     ethr =  1.00E-02,  avg # of iterations =  2.0

     negative rho (up, down):  1.129E-04 0.000E+00

     Adding external electric field

     Computed dipole along edir(3) : 
        Dipole               -0.8548 Ry au,         -2.1726 Debye
        Dipole field         -0.0003 Ry au, 

        Potential amp.        0.0398 Ry
        Total length         72.5655 bohr


     total cpu time spent up to now is       14.3 secs

     total energy              =  -10936.66989908 Ry
     estimated scf accuracy    <      84.71938318 Ry

     iteration #  2     ecut=    90.00 Ry     beta= 0.70
     Davidson diagonalization with overlap
     ethr =  4.71E-03,  avg # of iterations =  3.0

     negative rho (up, down):  3.990E-05 0.000E+00

     Adding external electric field

     Computed dipole along edir(3) : 
        Dipole               54.9729 Ry au,        139.7271 Debye
        Dipole field          0.0176 Ry au, 

        Potential amp.       -2.5584 Ry
        Total length         72.5655 bohr


     total cpu time spent up to now is       24.0 secs

     total energy              =  -10921.12664762 Ry
     estimated scf accuracy    <     263.96394441 Ry

     iteration #  3     ecut=    90.00 Ry     beta= 0.70
     Davidson diagonalization with overlap
     ethr =  4.71E-03,  avg # of iterations = 14.0

     negative rho (up, down):  2.674E-05 0.000E+00

     Adding external electric field

     Computed dipole along edir(3) : 
        Dipole                4.4247 Ry au,         11.2464 Debye
        Dipole field          0.0014 Ry au, 

        Potential amp.       -0.2059 Ry
        Total length         72.5655 bohr


     total cpu time spent up to now is       48.3 secs

     total energy              =  -10435.72942701 Ry
     estimated scf accuracy    <  234170.99588459 Ry

     iteration #  4     ecut=    90.00 Ry     beta= 0.70
     Davidson diagonalization with overlap
     ethr =  4.71E-03,  avg # of iterations = 16.0

     negative rho (up, down):  1.440E-05 0.000E+00

     Adding external electric field

     Computed dipole along edir(3) : 
        Dipole                1.9697 Ry au,          5.0064 Debye
        Dipole field          0.0006 Ry au, 

        Potential amp.       -0.0917 Ry
        Total length         72.5655 bohr


     total cpu time spent up to now is       71.3 secs

     total energy              =  -10895.95699707 Ry
     estimated scf accuracy    <    8071.95712104 Ry

     iteration #  5     ecut=    90.00 Ry     beta= 0.70
     Davidson diagonalization with overlap
     ethr =  4.71E-03,  avg # of iterations = 16.0

     Adding external electric field

     Computed dipole along edir(3) : 
        Dipole               -2.4450 Ry au,         -6.2145 Debye
        Dipole field         -0.0008 Ry au, 

        Potential amp.        0.1138 Ry
        Total length         72.5655 bohr


     total cpu time spent up to now is       83.0 secs

     total energy              =  -10973.67954198 Ry
     estimated scf accuracy    <      52.48673517 Ry

     iteration #  6     ecut=    90.00 Ry     beta= 0.70
     Davidson diagonalization with overlap
     ethr =  2.92E-03,  avg # of iterations =  6.0

     Adding external electric field

     Computed dipole along edir(3) : 
        Dipole               -0.0647 Ry au,         -0.1646 Debye
        Dipole field         -0.0000 Ry au, 

        Potential amp.        0.0030 Ry
        Total length         72.5655 bohr


     total cpu time spent up to now is       90.0 secs

     total energy              =  -10979.48384440 Ry
     estimated scf accuracy    <       4.97643641 Ry

     iteration #  7     ecut=    90.00 Ry     beta= 0.70
     Davidson diagonalization with overlap
     ethr =  2.76E-04,  avg # of iterations =  8.0

     Adding external electric field

     Computed dipole along edir(3) : 
        Dipole               -0.8689 Ry au,         -2.2086 Debye
        Dipole field         -0.0003 Ry au, 

        Potential amp.        0.0404 Ry
        Total length         72.5655 bohr


     total cpu time spent up to now is      100.6 secs

     total energy              =  -10980.11884385 Ry
     estimated scf accuracy    <       1.64331165 Ry

     iteration #  8     ecut=    90.00 Ry     beta= 0.70
     Davidson diagonalization with overlap
     ethr =  9.13E-05,  avg # of iterations = 11.0

     negative rho (up, down):  8.449E-04 0.000E+00

     Adding external electric field

     Computed dipole along edir(3) : 
        Dipole               -0.3797 Ry au,         -0.9652 Debye
        Dipole field         -0.0001 Ry au, 

        Potential amp.        0.0177 Ry
        Total length         72.5655 bohr


     total cpu time spent up to now is      112.1 secs

     total energy              =  -10980.11986314 Ry
     estimated scf accuracy    <       0.66953542 Ry

     iteration #  9     ecut=    90.00 Ry     beta= 0.70
     Davidson diagonalization with overlap
     ethr =  3.72E-05,  avg # of iterations = 25.0

     negative rho (up, down):  6.573E-04 0.000E+00

     Adding external electric field

     Computed dipole along edir(3) : 
        Dipole               -0.5070 Ry au,         -1.2886 Debye
        Dipole field         -0.0002 Ry au, 

        Potential amp.        0.0236 Ry
        Total length         72.5655 bohr


     total cpu time spent up to now is      136.6 secs

     total energy              =  -10980.24595538 Ry
     estimated scf accuracy    <       0.12813504 Ry

     iteration # 10     ecut=    90.00 Ry     beta= 0.70
     Davidson diagonalization with overlap
     ethr =  7.12E-06,  avg # of iterations = 22.0

     negative rho (up, down):  1.677E-04 0.000E+00

     Adding external electric field

     Computed dipole along edir(3) : 
        Dipole               -0.4727 Ry au,         -1.2014 Debye
        Dipole field         -0.0002 Ry au, 

        Potential amp.        0.0220 Ry
        Total length         72.5655 bohr


     total cpu time spent up to now is      158.0 secs

     total energy              =  -10980.24939410 Ry
     estimated scf accuracy    <       0.08587350 Ry

     iteration # 11     ecut=    90.00 Ry     beta= 0.70
     Davidson diagonalization with overlap
     ethr =  4.77E-06,  avg # of iterations = 22.0

     negative rho (up, down):  4.238E-05 0.000E+00

     Adding external electric field

     Computed dipole along edir(3) : 
        Dipole               -0.6519 Ry au,         -1.6568 Debye
        Dipole field         -0.0002 Ry au, 

        Potential amp.        0.0303 Ry
        Total length         72.5655 bohr


     total cpu time spent up to now is      176.3 secs

     total energy              =  -10980.25644468 Ry
     estimated scf accuracy    <       0.02352423 Ry

     iteration # 12     ecut=    90.00 Ry     beta= 0.70
     Davidson diagonalization with overlap
     ethr =  1.31E-06,  avg # of iterations = 22.0

     negative rho (up, down):  8.968E-06 0.000E+00

     Adding external electric field

     Computed dipole along edir(3) : 
        Dipole                0.0692 Ry au,          0.1759 Debye
        Dipole field          0.0000 Ry au, 

        Potential amp.       -0.0032 Ry
        Total length         72.5655 bohr


     total cpu time spent up to now is      196.1 secs

     total energy              =  -10980.25640126 Ry
     estimated scf accuracy    <       0.01372379 Ry

     iteration # 13     ecut=    90.00 Ry     beta= 0.70
     Davidson diagonalization with overlap
     c_bands:  1 eigenvalues not converged
     ethr =  7.62E-07,  avg # of iterations = 80.0

     negative rho (up, down):  6.442E-05 0.000E+00

     Adding external electric field

     Computed dipole along edir(3) : 
        Dipole               -0.3138 Ry au,         -0.7975 Debye
        Dipole field         -0.0001 Ry au, 

        Potential amp.        0.0146 Ry
        Total length         72.5655 bohr


     total cpu time spent up to now is      244.9 secs

     total energy              =  -10980.25401625 Ry
     estimated scf accuracy    <       0.01230371 Ry

     iteration # 14     ecut=    90.00 Ry     beta= 0.70
     Davidson diagonalization with overlap
     ethr =  6.84E-07,  avg # of iterations = 82.0

     negative rho (up, down):  1.585E-04 0.000E+00

     Adding external electric field

     Computed dipole along edir(3) : 
        Dipole               -1.1078 Ry au,         -2.8156 Debye
        Dipole field         -0.0004 Ry au, 

        Potential amp.        0.0516 Ry
        Total length         72.5655 bohr


     total cpu time spent up to now is      300.4 secs

     total energy              =  -10980.25161681 Ry
     estimated scf accuracy    <       0.01378868 Ry

     iteration # 15     ecut=    90.00 Ry     beta= 0.70
     Davidson diagonalization with overlap
     c_bands:  2 eigenvalues not converged
     ethr =  6.84E-07,  avg # of iterations = 80.0

     negative rho (up, down):  1.117E-06 0.000E+00

     Adding external electric field

     Computed dipole along edir(3) : 
        Dipole               -0.6169 Ry au,         -1.5680 Debye
        Dipole field         -0.0002 Ry au, 

        Potential amp.        0.0287 Ry
        Total length         72.5655 bohr


     total cpu time spent up to now is      345.4 secs

     total energy              =  -10980.25402584 Ry
     estimated scf accuracy    <       0.00791578 Ry

     iteration # 16     ecut=    90.00 Ry     beta= 0.70
     Davidson diagonalization with overlap
     c_bands:  4 eigenvalues not converged
     ethr =  4.40E-07,  avg # of iterations = 80.0

     negative rho (up, down):  2.405E-07 0.000E+00

     Adding external electric field

     Computed dipole along edir(3) : 
        Dipole               -0.6164 Ry au,         -1.5667 Debye
        Dipole field         -0.0002 Ry au, 

        Potential amp.        0.0287 Ry
        Total length         72.5655 bohr


     total cpu time spent up to now is      384.4 secs

     total energy              =  -10980.25538418 Ry
     estimated scf accuracy    <       0.00037793 Ry

     iteration # 17     ecut=    90.00 Ry     beta= 0.70
     Davidson diagonalization with overlap
     ethr =  2.10E-08,  avg # of iterations = 11.0

     negative rho (up, down):  8.310E-08 0.000E+00

     Adding external electric field

     Computed dipole along edir(3) : 
        Dipole               -0.6197 Ry au,         -1.5751 Debye
        Dipole field         -0.0002 Ry au, 

        Potential amp.        0.0288 Ry
        Total length         72.5655 bohr


     total cpu time spent up to now is      393.4 secs

     total energy              =  -10980.25546706 Ry
     estimated scf accuracy    <       0.00002385 Ry

     iteration # 18     ecut=    90.00 Ry     beta= 0.70
     Davidson diagonalization with overlap
     ethr =  1.33E-09,  avg # of iterations =  7.0

     negative rho (up, down):  3.665E-08 0.000E+00

     Adding external electric field

     Computed dipole along edir(3) : 
        Dipole               -0.6201 Ry au,         -1.5761 Debye
        Dipole field         -0.0002 Ry au, 

        Potential amp.        0.0289 Ry
        Total length         72.5655 bohr


     total cpu time spent up to now is      404.0 secs

     total energy              =  -10980.25547257 Ry
     estimated scf accuracy    <       0.00002253 Ry

     iteration # 19     ecut=    90.00 Ry     beta= 0.70
     Davidson diagonalization with overlap
     ethr =  1.25E-09,  avg # of iterations =  5.0

     Adding external electric field

     Computed dipole along edir(3) : 
        Dipole               -0.6198 Ry au,         -1.5753 Debye
        Dipole field         -0.0002 Ry au, 

        Potential amp.        0.0288 Ry
        Total length         72.5655 bohr


     total cpu time spent up to now is      411.8 secs

     total energy              =  -10980.25547643 Ry
     estimated scf accuracy    <       0.00000241 Ry

     iteration # 20     ecut=    90.00 Ry     beta= 0.70
     Davidson diagonalization with overlap
     ethr =  1.34E-10,  avg # of iterations =  5.0

     Adding external electric field

     Computed dipole along edir(3) : 
        Dipole               -0.6202 Ry au,         -1.5763 Debye
        Dipole field         -0.0002 Ry au, 

        Potential amp.        0.0289 Ry
        Total length         72.5655 bohr


     total cpu time spent up to now is      420.8 secs

     total energy              =  -10980.25547693 Ry
     estimated scf accuracy    <       0.00000105 Ry

     iteration # 21     ecut=    90.00 Ry     beta= 0.70
     Davidson diagonalization with overlap
     ethr =  5.84E-11,  avg # of iterations =  5.0

     Adding external electric field

     Computed dipole along edir(3) : 
        Dipole               -0.6194 Ry au,         -1.5744 Debye
        Dipole field         -0.0002 Ry au, 

        Potential amp.        0.0288 Ry
        Total length         72.5655 bohr


     total cpu time spent up to now is      428.9 secs

     total energy              =  -10980.25547712 Ry
     estimated scf accuracy    <       0.00000053 Ry

     iteration # 22     ecut=    90.00 Ry     beta= 0.70
     Davidson diagonalization with overlap
     ethr =  2.95E-11,  avg # of iterations =  5.0

     Adding external electric field

     Computed dipole along edir(3) : 
        Dipole               -0.6208 Ry au,         -1.5779 Debye
        Dipole field         -0.0002 Ry au, 

        Potential amp.        0.0289 Ry
        Total length         72.5655 bohr


     total cpu time spent up to now is      436.7 secs

     total energy              =  -10980.25547721 Ry
     estimated scf accuracy    <       0.00000005 Ry

     iteration # 23     ecut=    90.00 Ry     beta= 0.70
     Davidson diagonalization with overlap
     ethr =  2.79E-12,  avg # of iterations =  5.0

     Adding external electric field

     Computed dipole along edir(3) : 
        Dipole               -0.6197 Ry au,         -1.5752 Debye
        Dipole field         -0.0002 Ry au, 

        Potential amp.        0.0288 Ry
        Total length         72.5655 bohr


     total cpu time spent up to now is      446.5 secs

     total energy              =  -10980.25547722 Ry
     estimated scf accuracy    <       0.00000003 Ry

     iteration # 24     ecut=    90.00 Ry     beta= 0.70
     Davidson diagonalization with overlap
     ethr =  1.52E-12,  avg # of iterations =  3.0

     Adding external electric field

     Computed dipole along edir(3) : 
        Dipole               -0.6199 Ry au,         -1.5756 Debye
        Dipole field         -0.0002 Ry au, 

        Potential amp.        0.0289 Ry
        Total length         72.5655 bohr


     total cpu time spent up to now is      454.0 secs

     total energy              =  -10980.25547723 Ry
     estimated scf accuracy    <          4.6E-09 Ry

     iteration # 25     ecut=    90.00 Ry     beta= 0.70
     Davidson diagonalization with overlap
     ethr =  2.57E-13,  avg # of iterations =  5.0

     Adding external electric field

     Computed dipole along edir(3) : 
        Dipole               -0.6202 Ry au,         -1.5764 Debye
        Dipole field         -0.0002 Ry au, 

        Potential amp.        0.0289 Ry
        Total length         72.5655 bohr


     total cpu time spent up to now is      462.5 secs

     End of self-consistent calculation

          k = 0.0000 0.0000 0.0000 (282573 PWs)   bands (ev):

   -44.6570 -44.5355 -44.5144 -44.4810 -44.4719 -44.4717 -44.4604 -44.4507
   -44.4370 -44.4370 -44.4337 -44.4226 -44.4224 -44.4183 -44.4172 -44.4147
   -44.4120 -44.4036 -44.3884 -44.3690 -44.3037 -44.2372 -43.9721 -43.8046
   -41.2046 -40.8684 -40.8304 -40.8177 -40.8163 -40.8160 -40.8092 -40.7957
   -40.7879 -40.7853 -40.7800 -40.7789 -40.7777 -40.7711 -40.7655 -40.7636
   -40.7612 -40.7383 -40.7356 -40.7148 -40.7007 -40.6789 -40.6789 -40.6777
   -40.6639 -40.6455 -40.6400 -40.6339 -40.6258 -40.6239 -40.6151 -40.6084
   -40.5984 -40.5969 -40.5868 -40.5835 -40.5816 -40.5816 -40.5808 -40.5763
   -40.5743 -40.5543 -40.5473 -40.5323 -40.5313 -40.5305 -40.5243 -40.5237
   -40.5213 -40.5159 -40.5090 -40.5051 -40.5050 -40.5029 -40.4998 -40.4942
   -40.4870 -40.4854 -40.4851 -40.4788 -40.4187 -40.4137 -40.3994 -40.3958
   -40.3495 -40.3375 -40.3342 -40.3341 -40.2970 -40.2588 -40.2428 -40.1481
   -40.0661 -40.0639 -39.9180 -39.7546 -39.7268 -39.6193 -39.5701 -39.5598
   -39.5464 -39.5431 -39.5251 -39.4154 -27.8609 -27.8058 -27.4486 -27.4300
   -27.4224 -27.4021 -27.3958 -27.3864 -27.3819 -27.3726 -27.3615 -27.3115
   -27.3073 -27.2378 -27.2252 -27.2149 -27.2121 -27.2015 -27.1913 -27.1831
   -27.1797 -27.1758 -27.1743 -27.1718 -27.1658 -27.1640 -27.1470 -27.1433
   -27.1253 -27.1227 -27.1138 -27.1122 -27.0823 -27.0734 -27.0348 -26.9011
   -22.9231 -22.8491 -22.8124 -22.7882 -22.7792 -22.7627 -22.7625 -22.7598
   -22.7528 -22.7493 -22.7475 -22.7360 -22.7343 -22.7311 -22.7284 -22.7274
   -22.7236 -22.7231 -22.7219 -22.7212 -22.7200 -22.7117 -22.7079 -22.7075
   -22.7066 -22.7057 -22.7003 -22.6999 -22.6988 -22.6982 -22.6978 -22.6976
   -22.6972 -22.6932 -22.6927 -22.6901 -22.6888 -22.6850 -22.6826 -22.6806
   -22.6796 -22.6763 -22.6732 -22.6722 -22.6705 -22.6640 -22.6622 -22.6619
   -22.6580 -22.6542 -22.6497 -22.6463 -22.6461 -22.6399 -22.6393 -22.6367
   -22.6326 -22.6291 -22.6160 -22.5932 -22.5786 -22.5572 -22.5316 -22.4932
   -22.4897 -22.4727 -22.3037 -22.2306 -22.1901 -22.0992 -22.0920 -22.0049
   -14.5680 -14.4930 -14.4729 -14.4263 -14.2466 -14.2065 -14.1937 -14.1691
   -14.1480 -14.1283 -14.0979 -14.0748 -14.0458 -14.0386 -14.0311 -14.0140
   -13.9920 -13.9755 -13.9557 -13.9488 -13.9198 -13.9149 -13.8982 -13.8886
   -13.8662 -13.8621 -13.8208 -13.8111 -13.7894 -13.7769 -13.7567 -13.7557
   -13.7477 -13.7279 -13.7119 -13.6993 -13.6932 -13.6878 -13.6758 -13.6701
   -13.6512 -13.6455 -13.6362 -13.6294 -13.6187 -13.6171 -13.6084 -13.5967
   -13.5888 -13.5762 -13.5648 -13.5537 -13.5464 -13.5443 -13.5303 -13.5242
   -13.5208 -13.5032 -13.4917 -13.4840 -13.4695 -13.4639 -13.4490 -13.4285
   -13.4242 -13.4157 -13.3958 -13.3859 -13.3687 -13.3588 -13.3525 -13.3400
   -13.3237 -13.3114 -13.3024 -13.2835 -13.2810 -13.2684 -13.2596 -13.2506
   -13.2393 -13.2347 -13.2202 -13.2109 -13.1992 -13.1937 -13.1856 -13.1760
   -13.1674 -13.1600 -13.1501 -13.1473 -13.1304 -13.1149 -13.1104 -13.0963
   -13.0896 -13.0742 -13.0676 -13.0581 -13.0532 -13.0353 -13.0247 -13.0195
   -13.0045 -12.9965 -12.9932 -12.9764 -12.9602 -12.9517 -12.9436 -12.9203
   -12.9079 -12.9024 -12.8947 -12.8854 -12.8762 -12.8595 -12.8561 -12.8496
   -12.8346 -12.8238 -12.8187 -12.8043 -12.7926 -12.7736 -12.7625 -12.7524
   -12.7432 -12.7267 -12.7087 -12.6943 -12.6879 -12.6720 -12.6684 -12.6580
   -12.6474 -12.6316 -12.6238 -12.5889 -12.4595 -12.3685 -11.7404 -11.4681
   -11.2126 -11.0866 -11.0533 -11.0089 -10.9782 -10.9685 -10.8882 -10.8828
   -10.8690 -10.8617 -10.8478 -10.8375 -10.8302 -10.8279 -10.8187 -10.8148
   -10.8116 -10.8031 -10.7931 -10.7920 -10.7783 -10.7744 -10.7708 -10.7666
   -10.7510 -10.7467 -10.7359 -10.7350 -10.7321 -10.7072 -10.7022 -10.6880
   -10.6836 -10.6666 -10.6583 -10.6544 -10.6464 -10.6342 -10.6258 -10.6097
   -10.5933 -10.5855 -10.5682 -10.5643 -10.5582 -10.5480 -10.5455 -10.5381
   -10.5284 -10.5207 -10.5077 -10.4867 -10.4795 -10.4695 -10.4657 -10.4288
   -10.4021 -10.3893 -10.3706 -10.3678 -10.3615 -10.3458 -10.3431 -10.3387
   -10.3359 -10.3231 -10.3148 -10.3043 -10.2965 -10.2839 -10.2775 -10.2630
   -10.2520 -10.2444 -10.2389 -10.2322 -10.2175 -10.2127 -10.1888 -10.1796
   -10.1702 -10.1523 -10.1438 -10.1336 -10.1088 -10.0969 -10.0808 -10.0687
   -10.0656 -10.0485 -10.0378 -10.0219 -10.0071  -9.9839  -9.9632  -9.9390
    -9.9338  -9.9137  -9.8921  -9.8854  -9.8734  -9.8505  -9.8471  -9.8139
    -9.7589  -9.7283  -9.7108  -9.6657  -0.9300  -0.8163  -0.7415  -0.7291
    -0.7083  -0.6934  -0.6690  -0.6669  -0.6487  -0.6404  -0.6246  -0.6121
    -0.5940  -0.5855  -0.5668  -0.5618  -0.5505  -0.5374  -0.5324  -0.5317
    -0.5006  -0.4886  -0.4701  -0.4600  -0.4388  -0.4352  -0.4092  -0.3926
    -0.3819  -0.3640  -0.3555  -0.3540  -0.3255  -0.3109  -0.3041  -0.2985
    -0.2837  -0.2617  -0.2427  -0.2373  -0.2313  -0.2301  -0.2201  -0.2120
    -0.2078  -0.1906  -0.1862  -0.1803  -0.1693  -0.1604  -0.1500  -0.1474
    -0.1461  -0.1335  -0.1291  -0.1240  -0.1216  -0.1025  -0.0988  -0.0874
    -0.0813  -0.0772  -0.0666  -0.0622  -0.0593  -0.0518  -0.0441  -0.0324
    -0.0226  -0.0173  -0.0127   0.0060   0.0124   0.0142   0.0203   0.0267
     0.0316   0.0385   0.0420   0.0467   0.0589   0.0605   0.0656   0.0744
     0.0890   0.0945   0.0973   0.1041   0.1108   0.1242   0.1273   0.1384
     0.1419   0.1541   0.1635   0.1665   0.1720   0.1731   0.1824   0.1856
     0.1889   0.1987   0.1989   0.2062   0.2185   0.2245   0.2257   0.2304
     0.2342   0.2455   0.2522   0.2555   0.2644   0.2713   0.2771   0.2799
     0.2840   0.2944   0.3016   0.3084   0.3092   0.3206   0.3250   0.3332
     0.3373   0.3387   0.3433   0.3536   0.3654   0.3710   0.3739   0.3792
     0.3851   0.3914   0.4042   0.4065   0.4141   0.4257   0.4304   0.4377
     0.4422   0.4479   0.4570   0.4640   0.4677   0.4713   0.4910   0.4950
     0.4980   0.5012   0.5110   0.5180   0.5231   0.5252   0.5347   0.5435
     0.5509   0.5595   0.5667   0.5768   0.5852   0.5974   0.6079   0.6169
     0.6247   0.6348   0.6396   0.6464   0.6587   0.6731   0.6818   0.6835
     0.6990   0.7016   0.7064   0.7111   0.7280   0.7307   0.7365   0.7544
     0.7618   0.7673   0.7776   0.7922   0.7981   0.8024   0.8221   0.8331
     0.8386   0.8433   0.8485   0.8648   0.8729   0.8787   0.8973   0.9034
     0.9098   0.9175   0.9235   0.9316   0.9391   0.9487   0.9589   0.9706
     0.9714   0.9810   0.9933   0.9965   1.0033   1.0121   1.0185   1.0292
     1.0370   1.0395   1.0472   1.0515   1.0715   1.0849   1.0899   1.1083
     1.1235   1.1251   1.1325   1.1353   1.1483   1.1530   1.1623   1.1764
     1.1867   1.1886   1.1954   1.2068   1.2092   1.2155   1.2253   1.2370
     1.2403   1.2529   1.2557   1.2594   1.2679   1.2758   1.2924   1.3044
     1.3053   1.3157   1.3183   1.3273   1.3345   1.3415   1.3513   1.3577
     1.3671   1.3772   1.3801   1.3884   1.3967   1.4102   1.4144   1.4173
     1.4273   1.4389   1.4423   1.4548   1.4594   1.4674   1.4760   1.4823
     1.4926   1.4966   1.5060   1.5079   1.5206   1.5315   1.5332   1.5372
     1.5486   1.5530   1.5552   1.5697   1.5740   1.5811   1.5822   1.5965
     1.6018   1.6125   1.6244   1.6260   1.6318   1.6350   1.6428   1.6577
     1.6660   1.6702   1.6791   1.6838   1.6897   1.7014   1.7039   1.7103
     1.7200   1.7249   1.7267   1.7404   1.7479   1.7502   1.7526   1.7639
     1.7641   1.7709   1.7731   1.7741   1.7808   1.7904   1.7973   1.8062
     1.8107   1.8134   1.8188   1.8263   1.8314   1.8383   1.8406   1.8493
     1.8572   1.8634   1.8698   1.8768   1.8789   1.8930   1.8937   1.9022
     1.9045   1.9089   1.9244   1.9274   1.9382   1.9428   1.9470   1.9537
     1.9571   1.9684   1.9729   1.9788   1.9801   1.9857   1.9890   1.9953
     2.0046   2.0055   2.0093   2.0156   2.0216   2.0272   2.0292   2.0357
     2.0376   2.0453   2.0490   2.0578   2.0617   2.0703   2.0750   2.0869
     2.0909   2.0965   2.1010   2.1025   2.1085   2.1143   2.1252   2.1283
     2.1307   2.1392   2.1479   2.1521   2.1549   2.1636   2.1691   2.1851
     2.1882   2.1962   2.2016   2.2057   2.2093   2.2187   2.2226   2.2256
     2.2262   2.2330   2.2407   2.2451   2.2539   2.2565   2.2721   2.2751
     2.2860   2.2889   2.2971   2.3024   2.3047   2.3221   2.3255   2.3281
     2.3370   2.3463   2.3543   2.3592   2.3627   2.3699   2.3732   2.3823
     2.3960   2.4013   2.4066   2.4112   2.4154   2.4212   2.4336   2.4458
     2.4547   2.4574   2.4723   2.5053   2.5191   2.5252   2.5767   2.6507
     2.7102   2.7622   2.7851   2.9537   5.5627   5.7720   6.2603   6.2938
     6.5407   6.6157   6.6304   6.6731   6.6981   6.6996   6.7459   6.7479
     6.7530   6.7843   6.7905   6.8188   6.8241   6.8389   6.8463   6.8519
     6.8617   6.8661   6.8748   6.8806   6.8851   6.8982   6.9080   6.9154
     6.9179   6.9275   6.9348   6.9448   6.9481   6.9576   6.9704   6.9799
     6.9840   6.9865   6.9907   7.0005   7.0077   7.0108   7.0220   7.0289
     7.0305   7.0329   7.0423   7.0506   7.0590   7.0608   7.0634   7.0672
     7.0768   7.0815   7.0832   7.0883   7.0905   7.0946   7.0994   7.1069
     7.1091   7.1186   7.1266   7.1292   7.1345   7.1441   7.1498   7.1521
     7.1640   7.1664   7.1722   7.1755   7.1802   7.1827   7.1852   7.1921
     7.1993   7.2082   7.2192   7.2201   7.2233   7.2255   7.2315   7.2362
     7.2385   7.2489   7.2532   7.2604   7.2652   7.2691   7.2716   7.2728
     7.2747   7.2809   7.2878   7.2934   7.2961   7.2981   7.3030   7.3077
     7.3119   7.3161   7.3183   7.3237   7.3240   7.3268   7.3315   7.3342
     7.3425   7.3438   7.3543   7.3571   7.3575   7.3592   7.3626   7.3667
     7.3689   7.3736   7.3751   7.3765   7.3783   7.3801   7.3820   7.3849
     7.3881   7.3943   7.3969   7.4008   7.4034   7.4091   7.4171   7.4176
     7.4210   7.4249   7.4266   7.4331   7.4379   7.4401   7.4426   7.4441
     7.4469   7.4499   7.4531   7.4561   7.4608   7.4658   7.4694   7.4706
     7.4734   7.4764   7.4808   7.4824   7.4859   7.4884   7.4912   7.4942
     7.4984   7.5003   7.5019   7.5027   7.5046   7.5055   7.5083   7.5138
     7.5168   7.5190   7.5235   7.5264   7.5284   7.5308   7.5354   7.5400
     7.5407   7.5426   7.5506   7.5518   7.5538   7.5588   7.5616   7.5631

     the Fermi energy is     4.3001 ev

!    total energy              =  -10980.25547723 Ry
     estimated scf accuracy    <          9.9E-10 Ry
     smearing contrib. (-TS)   =       0.00000000 Ry
     internal energy E=F+TS    =  -10980.25547723 Ry

     The total energy is F=E-TS. E is the sum of the following terms:
     one-electron contribution = -262689.15409993 Ry
     hartree contribution      =  131920.19603229 Ry
     xc contribution           =   -2580.51569569 Ry
     ewald contribution        =  122369.21816276 Ry
     electric field correction =       0.00012334 Ry

     convergence has been achieved in  25 iterations

     Forces acting on atoms (cartesian axes, Ry/au):

     atom    1 type  1   force =    -0.00089111   -0.00037439   -0.00013344
     atom    2 type  1   force =     0.00017258   -0.00085514   -0.00030661
     atom    3 type  1   force =     0.00101564   -0.00021872   -0.00028464
     atom    4 type  1   force =     0.00042811    0.00053934    0.00002971
     atom    5 type  1   force =    -0.00057784    0.00025401   -0.00015491
     atom    6 type  1   force =    -0.00055307   -0.00015856    0.00002751
     atom    7 type  1   force =     0.00050762   -0.00005744    0.00001949
     atom    8 type  1   force =    -0.00063256   -0.00019410    0.00052846
     atom    9 type  1   force =     0.00040988    0.00026581    0.00021031
     atom   10 type  1   force =    -0.00028354   -0.00001722    0.00046012
     atom   11 type  1   force =     0.00035448    0.00007539   -0.00041461
     atom   12 type  1   force =    -0.00001752   -0.00064962    0.00006170
     atom   13 type  1   force =    -0.00014024    0.00022891    0.00020071
     atom   14 type  1   force =    -0.00036512    0.00040381    0.00050093
     atom   15 type  1   force =     0.00047340   -0.00041480    0.00015673
     atom   16 type  1   force =     0.00036001    0.00040013    0.00046071
     atom   17 type  1   force =    -0.00080679   -0.00005121    0.00056751
     atom   18 type  1   force =     0.00012683   -0.00009129    0.00013714
     atom   19 type  1   force =     0.00018351   -0.00046228   -0.00018009
     atom   20 type  1   force =     0.00013002    0.00049849   -0.00009295
     atom   21 type  1   force =     0.00014555   -0.00056325   -0.00010205
     atom   22 type  1   force =     0.00009550    0.00057904    0.00065412
     atom   23 type  1   force =    -0.00028658   -0.00053286    0.00049586
     atom   24 type  1   force =    -0.00019225    0.00025801    0.00083479
     atom   25 type  1   force =     0.00000907   -0.00007515    0.00006875
     atom   26 type  1   force =     0.00060053    0.00032091   -0.00016075
     atom   27 type  1   force =    -0.00058884    0.00035615    0.00047499
     atom   28 type  1   force =    -0.00055257   -0.00038511    0.00010411
     atom   29 type  1   force =    -0.00012349   -0.00066211    0.00044449
     atom   30 type  1   force =     0.00041942   -0.00038189   -0.00000718
     atom   31 type  1   force =     0.00005472    0.00070545    0.00079412
     atom   32 type  1   force =    -0.00013604   -0.00006576    0.00026237
     atom   33 type  1   force =     0.00030963   -0.00011678   -0.00037630
     atom   34 type  1   force =    -0.00031969   -0.00055896    0.00003714
     atom   35 type  1   force =     0.00041068    0.00020950   -0.00022924
     atom   36 type  1   force =    -0.00066217   -0.00013662    0.00045271
     atom   37 type  1   force =     0.00045857    0.00040215    0.00047363
     atom   38 type  1   force =    -0.00039656    0.00003745    0.00092054
     atom   39 type  1   force =     0.00008641    0.00003456    0.00020079
     atom   40 type  1   force =     0.00003244   -0.00082022   -0.00003988
     atom   41 type  1   force =     0.00020201    0.00075587    0.00018610
     atom   42 type  1   force =    -0.00043606    0.00049732    0.00055837
     atom   43 type  1   force =     0.00057176   -0.00032989   -0.00002410
     atom   44 type  1   force =     0.00055598    0.00038711    0.00035615
     atom   45 type  1   force =    -0.00085766   -0.00008956    0.00054787
     atom   46 type  1   force =    -0.00001696    0.00008062    0.00032420
     atom   47 type  1   force =     0.00020366   -0.00045633   -0.00036981
     atom   48 type  1   force =     0.00023915    0.00043602    0.00010246
     atom   49 type  1   force =     0.00011960   -0.00066653    0.00002351
     atom   50 type  1   force =     0.00012636    0.00058688    0.00070062
     atom   51 type  1   force =    -0.00043699   -0.00061911    0.00056534
     atom   52 type  1   force =    -0.00023487    0.00031417    0.00082638
     atom   53 type  1   force =    -0.00003415   -0.00011325    0.00009840
     atom   54 type  1   force =     0.00059055    0.00045478   -0.00051354
     atom   55 type  1   force =    -0.00049602    0.00030088    0.00055937
     atom   56 type  1   force =    -0.00046358   -0.00038893    0.00004598
     atom   57 type  1   force =    -0.00017760   -0.00055273    0.00044732
     atom   58 type  1   force =     0.00056309   -0.00039111   -0.00005676
     atom   59 type  1   force =     0.00006686    0.00064778    0.00070905
     atom   60 type  1   force =    -0.00012176   -0.00000633    0.00023046
     atom   61 type  1   force =     0.00028269   -0.00004730   -0.00014927
     atom   62 type  1   force =    -0.00036918   -0.00059655   -0.00010470
     atom   63 type  1   force =     0.00056402    0.00024830   -0.00019692
     atom   64 type  1   force =    -0.00060316   -0.00028472    0.00029433
     atom   65 type  1   force =     0.00024876    0.00059892    0.00044265
     atom   66 type  1   force =    -0.00057808    0.00005263    0.00097175
     atom   67 type  1   force =     0.00012304   -0.00022152    0.00034610
     atom   68 type  1   force =     0.00022926   -0.00087516    0.00006368
     atom   69 type  1   force =     0.00014190    0.00057677    0.00020051
     atom   70 type  1   force =    -0.00047833    0.00038553    0.00062098
     atom   71 type  1   force =    -0.00013474    0.00011169    0.00037943
     atom   72 type  1   force =     0.00088041    0.00050466    0.00052173
     atom   73 type  1   force =    -0.00079023   -0.00047220    0.00082866
     atom   74 type  1   force =     0.00004539   -0.00003450    0.00019058
     atom   75 type  1   force =     0.00047976   -0.00044136   -0.00040858
     atom   76 type  1   force =    -0.00015206   -0.00012785    0.00016922
     atom   77 type  1   force =     0.00059316   -0.00030605   -0.00023500
     atom   78 type  1   force =    -0.00079867    0.00079967    0.00002937
     atom   79 type  1   force =     0.00044104   -0.00047724    0.00023748
     atom   80 type  1   force =     0.00061312   -0.00030260    0.00087392
     atom   81 type  1   force =     0.00006311    0.00022531    0.00040122
     atom   82 type  1   force =     0.00037818    0.00082094    0.00071821
     atom   83 type  1   force =    -0.00018693   -0.00049278    0.00090980
     atom   84 type  1   force =    -0.00084152   -0.00104357    0.00078695
     atom   85 type  2   force =     0.00162119    0.00175641   -0.00613909
     atom   86 type  2   force =     0.00233960   -0.00242222   -0.00080827
     atom   87 type  2   force =    -0.00272941    0.00158454   -0.00364179
     atom   88 type  2   force =    -0.00010419   -0.00174846    0.00201279
     atom   89 type  2   force =     0.00052380    0.00199372    0.00285904
     atom   90 type  2   force =    -0.00099995    0.00011129    0.00049659
     atom   91 type  2   force =     0.00037766   -0.00124011   -0.00001687
     atom   92 type  2   force =    -0.00017189   -0.00068246    0.00251615
     atom   93 type  2   force =    -0.00001731    0.00024013    0.00134001
     atom   94 type  2   force =    -0.00029170    0.00028779    0.00207323
     atom   95 type  2   force =    -0.00019116    0.00026476    0.00071173
     atom   96 type  2   force =     0.00064955    0.00069826    0.00130076
     atom   97 type  2   force =     0.00035660    0.00041398    0.00073085
     atom   98 type  2   force =    -0.00007031    0.00021536    0.00094342
     atom   99 type  2   force =     0.00031156   -0.00047366    0.00033716
     atom  100 type  2   force =    -0.00005110    0.00002300    0.00152025
     atom  101 type  2   force =    -0.00020645    0.00034115    0.00081563
     atom  102 type  2   force =    -0.00034265   -0.00037348    0.00119523
     atom  103 type  2   force =    -0.00077782   -0.00085449    0.00084469
     atom  104 type  2   force =     0.00008118   -0.00021583    0.00107605
     atom  105 type  2   force =     0.00044020   -0.00014119    0.00020734
     atom  106 type  2   force =    -0.00042442    0.00024387    0.00189359
     atom  107 type  2   force =    -0.00028069   -0.00009107    0.00123903
     atom  108 type  2   force =     0.00034745    0.00072952    0.00099069
     atom  109 type  2   force =     0.00038991    0.00037449    0.00124083
     atom  110 type  2   force =     0.00022031    0.00007609    0.00144216
     atom  111 type  2   force =     0.00021578   -0.00026759   -0.00001842
     atom  112 type  2   force =    -0.00002018   -0.00000692    0.00011912
     atom  113 type  2   force =     0.00054561    0.00021980    0.00028181
     atom  114 type  2   force =     0.00026175   -0.00092989    0.00299557
     atom  115 type  2   force =    -0.00099125   -0.00017054    0.00136640
     atom  116 type  2   force =    -0.00050240   -0.00079083    0.00166111
     atom  117 type  2   force =     0.00021208   -0.00027297    0.00209223
     atom  118 type  2   force =    -0.00065888   -0.00339923    0.00455752
     atom  119 type  2   force =    -0.00153491    0.00119258    0.00285414
     atom  120 type  2   force =    -0.00050205    0.00056544    0.00771945
     atom  121 type  3   force =     0.01093515   -0.00048496   -0.00717298
     atom  122 type  3   force =    -0.00526328    0.00461956   -0.00768142
     atom  123 type  3   force =     0.00877728   -0.00057863   -0.00079549
     atom  124 type  3   force =    -0.00906560   -0.00334257   -0.00096748
     atom  125 type  3   force =    -0.00010662    0.00146424    0.00059841
     atom  126 type  3   force =     0.00027269   -0.00251079    0.00108903
     atom  127 type  3   force =     0.00034688    0.00058490    0.00115898
     atom  128 type  3   force =    -0.00129828    0.00271561    0.00099590
     atom  129 type  3   force =    -0.00032045   -0.00080255    0.00059717
     atom  130 type  3   force =    -0.00022970    0.00069366    0.00114229
     atom  131 type  3   force =    -0.00088522   -0.00007955    0.00156730
     atom  132 type  3   force =    -0.00050829    0.00002204    0.00212885
     atom  133 type  3   force =     0.00027810   -0.00005136    0.00069727
     atom  134 type  3   force =     0.00013889   -0.00084061    0.00088617
     atom  135 type  3   force =     0.00068899   -0.00029735    0.00095985
     atom  136 type  3   force =    -0.00070122   -0.00028865    0.00138352
     atom  137 type  3   force =     0.00206787   -0.00029126    0.00203787
     atom  138 type  3   force =     0.00018955   -0.00000543    0.00152106
     atom  139 type  3   force =    -0.00087839    0.00026911    0.00029811
     atom  140 type  3   force =    -0.00008953    0.00058680    0.00131236
     atom  141 type  3   force =    -0.00749828    0.00896218    0.01653198
     atom  142 type  3   force =     0.00404696   -0.00151866    0.01788215
     atom  143 type  3   force =     0.00164274    0.00752115    0.00501095
     atom  144 type  3   force =    -0.00208586   -0.00452926    0.00456932
     atom  145 type  4   force =     0.00324432   -0.00253881    0.00509235
     atom  146 type  4   force =    -0.00488197    0.00049084    0.00304146
     atom  147 type  4   force =     0.00778835   -0.00137638    0.00479732
     atom  148 type  4   force =    -0.00816331    0.00424411    0.00639331
     atom  149 type  4   force =     0.00278437   -0.00530072    0.00253750
     atom  150 type  4   force =    -0.00301695    0.00973250    0.00472647
     atom  151 type  4   force =    -0.01141913    0.01094062    0.00392355
     atom  152 type  4   force =     0.00889376   -0.01057876    0.00208682
     atom  153 type  4   force =    -0.00975073   -0.01276648    0.00096606
     atom  154 type  4   force =     0.00492368    0.00554157    0.00003837
     atom  155 type  4   force =     0.00285137   -0.00036923    0.00363803
     atom  156 type  4   force =    -0.00250683    0.00008589    0.00306889
     atom  157 type  4   force =     0.00907775    0.00663146    0.00262969
     atom  158 type  4   force =    -0.00928566   -0.00472018   -0.00267326
     atom  159 type  4   force =    -0.00415189   -0.00260572   -0.00071239
     atom  160 type  4   force =     0.00410094    0.00198858   -0.00169840
     atom  161 type  4   force =     0.00331844   -0.00023776    0.00187066
     atom  162 type  4   force =    -0.00295157    0.00020513   -0.00003370
     atom  163 type  4   force =     0.00147805   -0.00252948   -0.00526436
     atom  164 type  4   force =    -0.00078768    0.00220495   -0.00418423
     atom  165 type  4   force =     0.00439437   -0.00007856   -0.00305310
     atom  166 type  4   force =    -0.00339614    0.00098641   -0.00333922
     atom  167 type  4   force =     0.00277453   -0.00096986   -0.00629569
     atom  168 type  4   force =    -0.00094149    0.00108620   -0.00598796
     atom  169 type  4   force =     0.00260456   -0.00109148    0.00538576
     atom  170 type  4   force =    -0.00278972    0.00213072    0.00657339
     atom  171 type  4   force =     0.00155258   -0.00468625    0.00538700
     atom  172 type  4   force =    -0.00160925    0.00513882    0.00414626
     atom  173 type  4   force =     0.00574455   -0.00026787    0.00331317
     atom  174 type  4   force =    -0.00654394    0.00071057    0.00408869
     atom  175 type  4   force =     0.00532162   -0.00333109    0.00200266
     atom  176 type  4   force =    -0.00507679    0.00364264    0.00085889
     atom  177 type  4   force =     0.00197588    0.00549082    0.00155001
     atom  178 type  4   force =    -0.00273082   -0.00751160    0.00143815
     atom  179 type  4   force =    -0.00145618   -0.00458197    0.00120630
     atom  180 type  4   force =     0.00143777    0.00585027    0.00178526
     atom  181 type  4   force =    -0.00264552   -0.00754556   -0.00198648
     atom  182 type  4   force =     0.00328037    0.00748621   -0.00291642
     atom  183 type  4   force =     0.00230543    0.00592273   -0.00328819
     atom  184 type  4   force =    -0.00251559   -0.00651018   -0.00281375
     atom  185 type  4   force =    -0.00544018    0.00341308   -0.00312725
     atom  186 type  4   force =     0.00673090   -0.00508854   -0.00380464
     atom  187 type  4   force =     0.00505127   -0.00074025   -0.00479981
     atom  188 type  4   force =    -0.00538721    0.00034743   -0.00476873
     atom  189 type  4   force =     0.00217933   -0.00486600   -0.00492706
     atom  190 type  4   force =    -0.00118199    0.00456330   -0.00517954
     atom  191 type  4   force =     0.00275078   -0.00148936   -0.00711106
     atom  192 type  4   force =    -0.00237787    0.00079207   -0.00673426
     atom  193 type  4   force =     0.00130948   -0.00171110    0.00505909
     atom  194 type  4   force =    -0.00186863    0.00189543    0.00547485
     atom  195 type  4   force =     0.00493454   -0.00007135    0.00459837
     atom  196 type  4   force =    -0.00515422    0.00031803    0.00400342
     atom  197 type  4   force =     0.00201606   -0.00474197    0.00329397
     atom  198 type  4   force =    -0.00219140    0.00494864    0.00369450
     atom  199 type  4   force =    -0.00626322    0.00417384    0.00214308
     atom  200 type  4   force =     0.00489971   -0.00426473    0.00197393
     atom  201 type  4   force =    -0.00522313   -0.00428297    0.00132752
     atom  202 type  4   force =     0.00500922    0.00422264    0.00150131
     atom  203 type  4   force =     0.00601058    0.00492121    0.00174338
     atom  204 type  4   force =    -0.00574609   -0.00435136    0.00127858
     atom  205 type  4   force =     0.00587907    0.00422012   -0.00199110
     atom  206 type  4   force =    -0.00544517   -0.00406238   -0.00208854
     atom  207 type  4   force =    -0.00569713   -0.00461429   -0.00272496
     atom  208 type  4   force =     0.00568369    0.00498845   -0.00256439
     atom  209 type  4   force =     0.00551079   -0.00367066   -0.00276355
     atom  210 type  4   force =    -0.00489195    0.00375661   -0.00291220
     atom  211 type  4   force =     0.00270043   -0.00555556   -0.00547283
     atom  212 type  4   force =    -0.00209859    0.00495432   -0.00422345
     atom  213 type  4   force =     0.00580132   -0.00077090   -0.00568630
     atom  214 type  4   force =    -0.00478591    0.00004431   -0.00510135
     atom  215 type  4   force =     0.00259294   -0.00218878   -0.00811836
     atom  216 type  4   force =    -0.00154679    0.00209613   -0.00699133
     atom  217 type  4   force =     0.00247904   -0.00059376    0.00552224
     atom  218 type  4   force =    -0.00271159    0.00181831    0.00653587
     atom  219 type  4   force =     0.00140868   -0.00418708    0.00393711
     atom  220 type  4   force =    -0.00239305    0.00500280    0.00448901
     atom  221 type  4   force =     0.00509426   -0.00015435    0.00313059
     atom  222 type  4   force =    -0.00592423    0.00083164    0.00413002
     atom  223 type  4   force =     0.00506546   -0.00337126    0.00167529
     atom  224 type  4   force =    -0.00540355    0.00385853    0.00141477
     atom  225 type  4   force =     0.00293781    0.00682667    0.00131473
     atom  226 type  4   force =    -0.00254200   -0.00679406    0.00139395
     atom  227 type  4   force =    -0.00228242   -0.00630877    0.00140188
     atom  228 type  4   force =     0.00230337    0.00671266    0.00117034
     atom  229 type  4   force =    -0.00233348   -0.00685442   -0.00220303
     atom  230 type  4   force =     0.00273414    0.00732986   -0.00263624
     atom  231 type  4   force =     0.00236925    0.00622553   -0.00260692
     atom  232 type  4   force =    -0.00251087   -0.00636451   -0.00250656
     atom  233 type  4   force =    -0.00584570    0.00345519   -0.00307696
     atom  234 type  4   force =     0.00604996   -0.00450345   -0.00330108
     atom  235 type  4   force =     0.00554976   -0.00060172   -0.00497526
     atom  236 type  4   force =    -0.00545029    0.00052981   -0.00444755
     atom  237 type  4   force =     0.00234260   -0.00508910   -0.00504592
     atom  238 type  4   force =    -0.00176982    0.00472564   -0.00539775
     atom  239 type  4   force =     0.00261667   -0.00140232   -0.00703583
     atom  240 type  4   force =    -0.00236584    0.00088390   -0.00659819
     atom  241 type  4   force =     0.00175862   -0.00206521    0.00579478
     atom  242 type  4   force =    -0.00234403    0.00235066    0.00621707
     atom  243 type  4   force =     0.00434752    0.00022976    0.00354236
     atom  244 type  4   force =    -0.00498675    0.00075766    0.00392624
     atom  245 type  4   force =     0.00198790   -0.00533179    0.00345760
     atom  246 type  4   force =    -0.00212570    0.00506251    0.00361336
     atom  247 type  4   force =    -0.00584748    0.00467354    0.00269374
     atom  248 type  4   force =     0.00453710   -0.00410085    0.00188534
     atom  249 type  4   force =    -0.00497929   -0.00443980    0.00145035
     atom  250 type  4   force =     0.00489963    0.00432497    0.00210186
     atom  251 type  4   force =     0.00586178    0.00491484    0.00153195
     atom  252 type  4   force =    -0.00620687   -0.00486882    0.00087905
     atom  253 type  4   force =     0.00630405    0.00386859   -0.00238411
     atom  254 type  4   force =    -0.00551840   -0.00389181   -0.00221366
     atom  255 type  4   force =    -0.00612246   -0.00473786   -0.00278627
     atom  256 type  4   force =     0.00522884    0.00369134   -0.00337008
     atom  257 type  4   force =     0.00591159   -0.00353950   -0.00272450
     atom  258 type  4   force =    -0.00524768    0.00400571   -0.00357436
     atom  259 type  4   force =     0.00283407   -0.00501104   -0.00557020
     atom  260 type  4   force =    -0.00191719    0.00444568   -0.00476009
     atom  261 type  4   force =     0.00577233   -0.00040851   -0.00535856
     atom  262 type  4   force =    -0.00551083    0.00008390   -0.00631121
     atom  263 type  4   force =     0.00245534   -0.00176391   -0.00855853
     atom  264 type  4   force =    -0.00129274    0.00158749   -0.00632382
     atom  265 type  4   force =    -0.00038572   -0.00079540    0.00175228
     atom  266 type  4   force =     0.00029065    0.00090393    0.00145724
     atom  267 type  4   force =     0.00138268   -0.00301480    0.00269943
     atom  268 type  4   force =    -0.00160699    0.00391886    0.00254128
     atom  269 type  4   force =     0.00191457    0.00080726    0.00202947
     atom  270 type  4   force =    -0.00309583   -0.00010178    0.00303074
     atom  271 type  4   force =     0.00311996   -0.00310405   -0.00009093
     atom  272 type  4   force =    -0.00551998    0.00380344   -0.00022614
     atom  273 type  4   force =     0.00278097    0.00824603    0.00267156
     atom  274 type  4   force =    -0.00390136   -0.00904179    0.00160368
     atom  275 type  4   force =    -0.00087367   -0.00279673    0.00087869
     atom  276 type  4   force =     0.00246315    0.00440217   -0.00030954
     atom  277 type  4   force =    -0.00555172   -0.00784461   -0.00027594
     atom  278 type  4   force =     0.00454556    0.00712415   -0.00180862
     atom  279 type  4   force =    -0.00249150    0.00258474   -0.00174055
     atom  280 type  4   force =     0.00053722   -0.00727329   -0.00499264
     atom  281 type  4   force =    -0.00413361    0.00596639   -0.00422408
     atom  282 type  4   force =     0.00637323   -0.00657026   -0.00577166
     atom  283 type  4   force =     0.00885928    0.00127448   -0.00434525
     atom  284 type  4   force =    -0.00665154    0.00157718   -0.00382242
     atom  285 type  4   force =     0.00765851   -0.00590406   -0.00909895
     atom  286 type  4   force =    -0.00292101    0.00787541   -0.00760292
     atom  287 type  4   force =     0.01454077   -0.00618066   -0.01619850
     atom  288 type  4   force =    -0.01139613   -0.00201165   -0.01776675
     The non-local contrib.  to forces
     atom    1 type  1   force =    -0.05727929   -0.02010794   -0.08542861
     atom    2 type  1   force =    -0.01950429   -0.03321553   -0.09903778
     atom    3 type  1   force =     0.05723540   -0.02877200   -0.07592324
     atom    4 type  1   force =     0.01013978    0.02167001   -0.09908992
     atom    5 type  1   force =    -0.04033051   -0.00074628   -0.06841610
     atom    6 type  1   force =    -0.09175137   -0.00345792   -0.01322480
     atom    7 type  1   force =     0.06304463    0.00038123   -0.02121856
     atom    8 type  1   force =    -0.02146645   -0.01509769    0.05281101
     atom    9 type  1   force =     0.02791625    0.04299578    0.00988132
     atom   10 type  1   force =     0.00014850    0.06470936    0.00059242
     atom   11 type  1   force =    -0.00501350   -0.01407163   -0.02902259
     atom   12 type  1   force =    -0.02971764   -0.03435256   -0.03846929
     atom   13 type  1   force =     0.04699928    0.00275694   -0.00553407
     atom   14 type  1   force =    -0.04962399   -0.00143198    0.02301607
     atom   15 type  1   force =     0.01069179   -0.05524236   -0.02585854
     atom   16 type  1   force =     0.02043228    0.05032775    0.03318167
     atom   17 type  1   force =    -0.04256359   -0.01942790    0.03875754
     atom   18 type  1   force =     0.00313944   -0.00789227   -0.00870554
     atom   19 type  1   force =     0.06355355   -0.00001012   -0.01967750
     atom   20 type  1   force =     0.00022876    0.05826581   -0.00116338
     atom   21 type  1   force =    -0.00520853   -0.04227611   -0.05666582
     atom   22 type  1   force =    -0.00750745    0.06567748    0.02000221
     atom   23 type  1   force =    -0.01107271   -0.05887288   -0.02717368
     atom   24 type  1   force =    -0.03892655   -0.00912080    0.03431997
     atom   25 type  1   force =    -0.00269320    0.00376226   -0.00323992
     atom   26 type  1   force =     0.05533559   -0.00381928   -0.01250140
     atom   27 type  1   force =    -0.02231647    0.05173723    0.02383342
     atom   28 type  1   force =    -0.01270634   -0.05195175   -0.02958753
     atom   29 type  1   force =    -0.04297343   -0.02737737    0.02696673
     atom   30 type  1   force =     0.04741059    0.00015864   -0.03348122
     atom   31 type  1   force =    -0.01077820    0.06471648    0.01919488
     atom   32 type  1   force =    -0.00046178   -0.00026721   -0.00012637
     atom   33 type  1   force =     0.00757232   -0.04386801   -0.04052687
     atom   34 type  1   force =    -0.04829104   -0.03273808    0.03376422
     atom   35 type  1   force =     0.06126543    0.01354244   -0.01552747
     atom   36 type  1   force =    -0.04425849   -0.02251703    0.04496155
     atom   37 type  1   force =     0.05006682    0.02609612   -0.02027480
     atom   38 type  1   force =    -0.01448450    0.05730987    0.03137720
     atom   39 type  1   force =    -0.00169774   -0.00287371   -0.00043499
[...]
     atom   55 type  1   force =    -0.00000064   -0.00000089   -0.00000379
     atom   56 type  1   force =     0.00000089    0.00000003   -0.00000368
     atom   57 type  1   force =     0.00000123   -0.00000023   -0.00000399
     atom   58 type  1   force =     0.00000038    0.00000118   -0.00000420
     atom   59 type  1   force =    -0.00000152    0.00000017   -0.00000378
     atom   60 type  1   force =    -0.00000010   -0.00000119   -0.00000326
     atom   61 type  1   force =     0.00000006   -0.00000044   -0.00000303
     atom   62 type  1   force =     0.00000046    0.00000015   -0.00000377
     atom   63 type  1   force =    -0.00000010   -0.00000011   -0.00000397
     atom   64 type  1   force =     0.00000037    0.00000020   -0.00000337
     atom   65 type  1   force =    -0.00000070   -0.00000046   -0.00000307
     atom   66 type  1   force =    -0.00000024    0.00000007   -0.00000224
     atom   67 type  1   force =     0.00000006   -0.00000093   -0.00000228
     atom   68 type  1   force =    -0.00000077    0.00000052   -0.00000171
     atom   69 type  1   force =     0.00000101   -0.00000066   -0.00000096
     atom   70 type  1   force =     0.00000086    0.00000137   -0.00000237
     atom   71 type  1   force =    -0.00000013   -0.00000132   -0.00000162
     atom   72 type  1   force =     0.00000063   -0.00000069   -0.00000179
     atom   73 type  1   force =    -0.00000031    0.00000098   -0.00000176
     atom   74 type  1   force =     0.00000043    0.00000043   -0.00000062
     atom   75 type  1   force =    -0.00000035    0.00000036    0.00000019
     atom   76 type  1   force =    -0.00000114   -0.00000068   -0.00000107
     atom   77 type  1   force =     0.00000164    0.00000053   -0.00000065
     atom   78 type  1   force =     0.00000042   -0.00000070    0.00000125
     atom   79 type  1   force =    -0.00000047    0.00000042    0.00000090
     atom   80 type  1   force =    -0.00000001   -0.00000060    0.00000089
     atom   81 type  1   force =    -0.00000055   -0.00000004    0.00000019
     atom   82 type  1   force =    -0.00000002   -0.00000083    0.00000077
     atom   83 type  1   force =     0.00000048   -0.00000029    0.00000008
     atom   84 type  1   force =    -0.00000041    0.00000087    0.00000072
     atom   85 type  2   force =     0.00000253   -0.00000058    0.00000596
     atom   86 type  2   force =     0.00000377   -0.00000409    0.00000100
     atom   87 type  2   force =    -0.00000483    0.00000412    0.00000219
     atom   88 type  2   force =    -0.00000229    0.00000281    0.00001407
     atom   89 type  2   force =     0.00000594   -0.00000049    0.00001621
     atom   90 type  2   force =    -0.00000203    0.00000265    0.00000974
     atom   91 type  2   force =     0.00000132   -0.00000236    0.00001253
     atom   92 type  2   force =    -0.00000284   -0.00000099    0.00000953
     atom   93 type  2   force =     0.00000265   -0.00000274    0.00000760
     atom   94 type  2   force =     0.00000005   -0.00000040    0.00000877
     atom   95 type  2   force =    -0.00000098    0.00000257    0.00000791
     atom   96 type  2   force =     0.00000075    0.00000012    0.00000625
     atom   97 type  2   force =     0.00000019    0.00000015    0.00000557
     atom   98 type  2   force =     0.00000001   -0.00000106    0.00000268
     atom   99 type  2   force =    -0.00000078    0.00000105    0.00000269
     atom  100 type  2   force =     0.00000012   -0.00000181   -0.00000660
     atom  101 type  2   force =     0.00000035    0.00000170   -0.00000593
     atom  102 type  2   force =    -0.00000048   -0.00000005   -0.00000939
     atom  103 type  2   force =     0.00000009   -0.00000005   -0.00001287
     atom  104 type  2   force =    -0.00000226    0.00000107   -0.00001781
     atom  105 type  2   force =     0.00000181   -0.00000043   -0.00001727
     atom  106 type  2   force =     0.00000485   -0.00000059   -0.00002215
     atom  107 type  2   force =    -0.00000509    0.00000005   -0.00002260
     atom  108 type  2   force =    -0.00000087    0.00000056   -0.00001687
     atom  109 type  2   force =     0.00000024   -0.00000050   -0.00002035
     atom  110 type  2   force =     0.00000145    0.00000253   -0.00001830
     atom  111 type  2   force =    -0.00000113   -0.00000243   -0.00001817
     atom  112 type  2   force =    -0.00000226   -0.00000130   -0.00001551
     atom  113 type  2   force =     0.00000082    0.00000141   -0.00001611
     atom  114 type  2   force =    -0.00000047    0.00000100   -0.00000979
     atom  115 type  2   force =    -0.00000021   -0.00000042   -0.00001124
     atom  116 type  2   force =    -0.00000701   -0.00000239   -0.00000415
     atom  117 type  2   force =     0.00000698    0.00000260   -0.00000559
     atom  118 type  2   force =    -0.00000036    0.00000167    0.00000375
     atom  119 type  2   force =    -0.00000018    0.00000114    0.00000132
     atom  120 type  2   force =     0.00000133    0.00000077   -0.00000119
     atom  121 type  3   force =    -0.00000640   -0.00000626    0.00000472
     atom  122 type  3   force =     0.00000414    0.00000601    0.00001269
     atom  123 type  3   force =    -0.00001124   -0.00000665    0.00000425
     atom  124 type  3   force =     0.00000553    0.00000792    0.00001038
     atom  125 type  3   force =    -0.00000200    0.00000299    0.00000857
     atom  126 type  3   force =     0.00000251   -0.00000302    0.00000716
     atom  127 type  3   force =     0.00000292   -0.00000042    0.00000824
     atom  128 type  3   force =    -0.00000203   -0.00000101    0.00000480
     atom  129 type  3   force =    -0.00000054   -0.00000074   -0.00000390
     atom  130 type  3   force =    -0.00000065    0.00000029   -0.00000428
     atom  131 type  3   force =    -0.00000059    0.00000181   -0.00000347
     atom  132 type  3   force =     0.00000005   -0.00000045   -0.00000342
     atom  133 type  3   force =     0.00000107    0.00000439   -0.00001840
     atom  134 type  3   force =     0.00000012   -0.00000447   -0.00002112
     atom  135 type  3   force =     0.00000179   -0.00000155   -0.00002769
     atom  136 type  3   force =    -0.00000407   -0.00000139   -0.00002747
     atom  137 type  3   force =    -0.00000099   -0.00000010   -0.00002322
     atom  138 type  3   force =     0.00000240    0.00000343   -0.00002338
     atom  139 type  3   force =    -0.00000348    0.00000184   -0.00001625
     atom  140 type  3   force =     0.00000429   -0.00000172   -0.00001609
     atom  141 type  3   force =    -0.00000402    0.00000153    0.00000486
     atom  142 type  3   force =    -0.00000006   -0.00000072    0.00000457
     atom  143 type  3   force =     0.00000016   -0.00000651   -0.00000457
     atom  144 type  3   force =     0.00000215    0.00000384   -0.00000267
     atom  145 type  4   force =    -0.00000206   -0.00000467    0.00000392
     atom  146 type  4   force =     0.00000344    0.00000442    0.00000421
     atom  147 type  4   force =     0.00000012   -0.00000229    0.00000019
     atom  148 type  4   force =    -0.00000020    0.00000075    0.00000450
     atom  149 type  4   force =     0.00000475   -0.00000019    0.00000196
     atom  150 type  4   force =    -0.00000761    0.00000371    0.00000300
     atom  151 type  4   force =    -0.00000505    0.00000018    0.00000211
     atom  152 type  4   force =     0.00000671   -0.00000428    0.00000634
     atom  153 type  4   force =    -0.00000293   -0.00000303    0.00000343
     atom  154 type  4   force =     0.00000473    0.00000415    0.00000187
     atom  155 type  4   force =     0.00000216    0.00000077    0.00000257
     atom  156 type  4   force =    -0.00000092   -0.00000084    0.00000202
     atom  157 type  4   force =     0.00000312    0.00000369    0.00000245
     atom  158 type  4   force =    -0.00000475   -0.00000288   -0.00000029
     atom  159 type  4   force =    -0.00000426    0.00000138    0.00000168
     atom  160 type  4   force =     0.00000228   -0.00000207    0.00000041
     atom  161 type  4   force =    -0.00000006    0.00000188    0.00000322
     atom  162 type  4   force =    -0.00000242    0.00000102    0.00000125
     atom  163 type  4   force =    -0.00000220   -0.00000284   -0.00000028
     atom  164 type  4   force =     0.00000276   -0.00000041    0.00000351
     atom  165 type  4   force =     0.00000382    0.00000266    0.00000444
     atom  166 type  4   force =    -0.00000045   -0.00000010    0.00000705
     atom  167 type  4   force =     0.00000517    0.00000124    0.00000110
     atom  168 type  4   force =    -0.00000476   -0.00000259    0.00000036
     atom  169 type  4   force =     0.00000120   -0.00000289    0.00000939
     atom  170 type  4   force =    -0.00000041    0.00000408    0.00001001
     atom  171 type  4   force =    -0.00000010   -0.00000351    0.00000519
     atom  172 type  4   force =    -0.00000100    0.00000135    0.00000487
     atom  173 type  4   force =     0.00000227    0.00000224    0.00000820
     atom  174 type  4   force =    -0.00000060   -0.00000147    0.00000663
     atom  175 type  4   force =     0.00000156   -0.00000173    0.00000682
     atom  176 type  4   force =    -0.00000331    0.00000312    0.00000647
     atom  177 type  4   force =    -0.00000111    0.00000498    0.00000640
     atom  178 type  4   force =     0.00000108   -0.00000315    0.00000744
     atom  179 type  4   force =    -0.00000040   -0.00000445    0.00000738
     atom  180 type  4   force =     0.00000047    0.00000373    0.00000836
     atom  181 type  4   force =    -0.00000134   -0.00000156    0.00000378
     atom  182 type  4   force =     0.00000213    0.00000237    0.00000358
     atom  183 type  4   force =     0.00000213    0.00000267    0.00000489
     atom  184 type  4   force =    -0.00000222   -0.00000430    0.00000429
     atom  185 type  4   force =    -0.00000236    0.00000218    0.00000462
     atom  186 type  4   force =     0.00000271   -0.00000389    0.00000313
     atom  187 type  4   force =     0.00000251   -0.00000132    0.00000310
     atom  188 type  4   force =    -0.00000299    0.00000123    0.00000253
     atom  189 type  4   force =     0.00000169   -0.00000193    0.00000276
     atom  190 type  4   force =    -0.00000157    0.00000274    0.00000145
     atom  191 type  4   force =     0.00000070   -0.00000013    0.00000068
     atom  192 type  4   force =    -0.00000054   -0.00000009    0.00000046
     atom  193 type  4   force =     0.00000081   -0.00000044    0.00000403
     atom  194 type  4   force =    -0.00000095    0.00000050    0.00000453
     atom  195 type  4   force =     0.00000158   -0.00000066    0.00000394
     atom  196 type  4   force =    -0.00000190    0.00000010    0.00000360
     atom  197 type  4   force =     0.00000032   -0.00000197    0.00000252
     atom  198 type  4   force =    -0.00000030    0.00000232    0.00000247
     atom  199 type  4   force =    -0.00000082    0.00000025    0.00000103
     atom  200 type  4   force =     0.00000059   -0.00000065    0.00000103
     atom  201 type  4   force =    -0.00000013   -0.00000057    0.00000072
     atom  202 type  4   force =     0.00000079    0.00000091    0.00000028
     atom  203 type  4   force =     0.00000089    0.00000182    0.00000068
     atom  204 type  4   force =    -0.00000099   -0.00000167    0.00000103
     atom  205 type  4   force =     0.00000128    0.00000132   -0.00000154
     atom  206 type  4   force =    -0.00000114   -0.00000130   -0.00000176
     atom  207 type  4   force =    -0.00000142   -0.00000049   -0.00000213
     atom  208 type  4   force =     0.00000114    0.00000000   -0.00000221
     atom  209 type  4   force =     0.00000085   -0.00000075   -0.00000312
     atom  210 type  4   force =    -0.00000085    0.00000068   -0.00000319
     atom  211 type  4   force =    -0.00000023   -0.00000165   -0.00000416
     atom  212 type  4   force =    -0.00000035    0.00000185   -0.00000373
     atom  213 type  4   force =     0.00000190    0.00000035   -0.00000475
     atom  214 type  4   force =    -0.00000131    0.00000015   -0.00000514
     atom  215 type  4   force =     0.00000152   -0.00000092   -0.00000744
     atom  216 type  4   force =    -0.00000085    0.00000087   -0.00000763
     atom  217 type  4   force =     0.00000125   -0.00000053   -0.00000538
     atom  218 type  4   force =    -0.00000100    0.00000082   -0.00000529
     atom  219 type  4   force =    -0.00000050   -0.00000093   -0.00000697
     atom  220 type  4   force =    -0.00000047    0.00000095   -0.00000767
     atom  221 type  4   force =     0.00000137    0.00000032   -0.00000724
     atom  222 type  4   force =    -0.00000049   -0.00000069   -0.00000767
     atom  223 type  4   force =     0.00000117   -0.00000034   -0.00000926
     atom  224 type  4   force =    -0.00000130   -0.00000002   -0.00000951
     atom  225 type  4   force =    -0.00000089    0.00000103   -0.00001016
     atom  226 type  4   force =     0.00000010   -0.00000151   -0.00000996
     atom  227 type  4   force =    -0.00000037   -0.00000150   -0.00000959
     atom  228 type  4   force =     0.00000070    0.00000197   -0.00000872
     atom  229 type  4   force =    -0.00000121   -0.00000058   -0.00001071
     atom  230 type  4   force =     0.00000154    0.00000039   -0.00001078
     atom  231 type  4   force =     0.00000033    0.00000100   -0.00001136
     atom  232 type  4   force =    -0.00000009   -0.00000027   -0.00001115
     atom  233 type  4   force =    -0.00000030    0.00000114   -0.00001132
     atom  234 type  4   force =    -0.00000020   -0.00000142   -0.00001206
     atom  235 type  4   force =     0.00000204    0.00000013   -0.00001156
     atom  236 type  4   force =    -0.00000224   -0.00000026   -0.00001079
     atom  237 type  4   force =     0.00000115   -0.00000231   -0.00001230
     atom  238 type  4   force =    -0.00000147    0.00000152   -0.00001247
     atom  239 type  4   force =     0.00000075   -0.00000027   -0.00001124
     atom  240 type  4   force =     0.00000018   -0.00000037   -0.00001142
     atom  241 type  4   force =    -0.00000126   -0.00000046   -0.00000797
     atom  242 type  4   force =     0.00000120    0.00000051   -0.00000776
     atom  243 type  4   force =     0.00000016    0.00000042   -0.00000922
     atom  244 type  4   force =     0.00000031    0.00000189   -0.00000978
     atom  245 type  4   force =     0.00000274   -0.00000175   -0.00000711
     atom  246 type  4   force =    -0.00000248    0.00000053   -0.00000750
     atom  247 type  4   force =    -0.00000216   -0.00000015   -0.00000933
     atom  248 type  4   force =     0.00000198    0.00000057   -0.00000927
     atom  249 type  4   force =    -0.00000161   -0.00000140   -0.00000935
     atom  250 type  4   force =     0.00000071    0.00000117   -0.00000942
     atom  251 type  4   force =     0.00000073    0.00000145   -0.00000790
     atom  252 type  4   force =    -0.00000073   -0.00000219   -0.00000750
     atom  253 type  4   force =     0.00000308    0.00000054   -0.00000892
     atom  254 type  4   force =    -0.00000317   -0.00000138   -0.00000900
     atom  255 type  4   force =    -0.00000062    0.00000160   -0.00000935
     atom  256 type  4   force =     0.00000145   -0.00000138   -0.00000878
     atom  257 type  4   force =     0.00000028    0.00000122   -0.00000910
     atom  258 type  4   force =    -0.00000022   -0.00000043   -0.00000782
     atom  259 type  4   force =    -0.00000119   -0.00000212   -0.00000940
     atom  260 type  4   force =     0.00000147    0.00000207   -0.00000857
     atom  261 type  4   force =     0.00000142    0.00000074   -0.00000731
     atom  262 type  4   force =    -0.00000160   -0.00000020   -0.00000740
     atom  263 type  4   force =     0.00000351    0.00000060   -0.00000766
     atom  264 type  4   force =    -0.00000278   -0.00000128   -0.00000744
     atom  265 type  4   force =    -0.00000186   -0.00000063   -0.00000466
     atom  266 type  4   force =     0.00000248    0.00000028   -0.00000521
     atom  267 type  4   force =    -0.00000002    0.00000071   -0.00000353
     atom  268 type  4   force =    -0.00000086    0.00000005   -0.00000171
     atom  269 type  4   force =    -0.00000391    0.00000030   -0.00000192
     atom  270 type  4   force =     0.00000106    0.00000055   -0.00000118
     atom  271 type  4   force =     0.00000273   -0.00000469   -0.00000238
     atom  272 type  4   force =    -0.00000211    0.00000427   -0.00000292
     atom  273 type  4   force =     0.00000001    0.00000422   -0.00000231
     atom  274 type  4   force =    -0.00000045   -0.00000542   -0.00000012
     atom  275 type  4   force =     0.00000088   -0.00000049    0.00000106
     atom  276 type  4   force =    -0.00000178   -0.00000311    0.00000186
     atom  277 type  4   force =    -0.00000001    0.00000319   -0.00000054
     atom  278 type  4   force =     0.00000121    0.00000015    0.00000066
     atom  279 type  4   force =     0.00000310    0.00000191   -0.00000100
     atom  280 type  4   force =    -0.00000162   -0.00000026   -0.00000042
     atom  281 type  4   force =    -0.00000226   -0.00000047   -0.00000086
     atom  282 type  4   force =     0.00000212    0.00000136   -0.00000038
     atom  283 type  4   force =    -0.00000038    0.00000091    0.00000048
     atom  284 type  4   force =     0.00000286   -0.00000169    0.00000177
     atom  285 type  4   force =     0.00000290   -0.00000279   -0.00000043
     atom  286 type  4   force =     0.00000023    0.00000298    0.00000129
     atom  287 type  4   force =    -0.00000415    0.00000152    0.00000464
     atom  288 type  4   force =    -0.00000011   -0.00000025    0.00000192

     Total force =     0.103608     Total SCF correction =     0.000135

     Writing all to output data dir ./temp/0D0Ha.save/

     init_run     :      6.54s CPU      6.42s WALL (       1 calls)
     electrons    :    534.36s CPU    455.44s WALL (       1 calls)
     forces       :      4.23s CPU      3.08s WALL (       1 calls)

     Called by init_run:
     wfcinit      :      3.16s CPU      3.63s WALL (       1 calls)
     potinit      :      1.08s CPU      0.59s WALL (       1 calls)
     hinit0       :      1.62s CPU      1.49s WALL (       1 calls)

     Called by electrons:
     c_bands      :    500.40s CPU    437.78s WALL (      25 calls)
     sum_band     :     31.79s CPU     16.04s WALL (      25 calls)
     v_of_rho     :      1.64s CPU      1.11s WALL (      26 calls)
     mix_rho      :      0.38s CPU      0.27s WALL (      25 calls)

     Called by c_bands:
     init_us_2    :      2.26s CPU      1.21s WALL (      51 calls)
     init_us_2:cp :      2.26s CPU      1.21s WALL (      51 calls)
     regterg      :    495.48s CPU    434.81s WALL (      42 calls)

     Called by *egterg:
     rdiaghg      :    138.14s CPU     79.46s WALL (     582 calls)
     h_psi        :    238.92s CPU    237.16s WALL (     583 calls)
     g_psi        :      0.84s CPU      0.42s WALL (     540 calls)

     Called by h_psi:
     h_psi:calbec :     48.08s CPU     48.15s WALL (     583 calls)
     vloc_psi     :    144.74s CPU    142.82s WALL (     583 calls)
     add_vuspsi   :     44.55s CPU     45.40s WALL (     583 calls)

     General routines
     calbec       :     49.40s CPU     49.46s WALL (     587 calls)
     fft          :      1.23s CPU      1.26s WALL (     216 calls)
     ffts         :      0.14s CPU      0.07s WALL (      25 calls)
     fftw         :    161.17s CPU    145.76s WALL (  153268 calls)

     Parallel routines

     PWSCF        :   9m17.80s CPU   8m 1.30s WALL


   This run was terminated on:  16: 8: 3  20Mar2025            

=------------------------------------------------------------------------------=
   JOB DONE.
=------------------------------------------------------------------------------=
