
     Program PWSCF v.7.2 starts on 20Mar2025 at 16:29: 8 

     This program is part of the open-source Quantum ESPRESSO suite
     for quantum simulation of materials; please cite
         "P. Giannozzi et al., J. Phys.:Condens. Matter 21 395502 (2009);
         "P. Giannozzi et al., J. Phys.:Condens. Matter 29 465901 (2017);
         "P. Giannozzi et al., J. Chem. Phys. 152 154105 (2020);
          URL http://www.quantum-espresso.org", 
     in publications or presentations arising from this work. More details at
     http://www.quantum-espresso.org/quote

     Parallel version (MPI & OpenMP), running on     480 processor cores
     Number of MPI processes:               240
     Threads/MPI process:                     2

     MPI processes distributed on    10 nodes
     711140 MiB available memory on the printing compute node when the environment starts

     Reading input from LLZO_LaTermination_M0D00125Ha.scf.in

     Current dimensions of program PWSCF are:
     Max number of different atomic species (ntypx) = 10
     Max number of k-points (npk) =  40000
     Max angular momentum in pseudopotentials (lmaxx) =  4

     gamma-point specific algorithms are used

     R & G space division:  proc/nbgrp/npool/nimage =     240
     Subspace diagonalization in iterative solution of the eigenvalue problem:
     one sub-group per band group will be used
     ELPA distributed-memory algorithm (size of sub-group: 11* 11 procs)


     Parallelization info
     --------------------
     sticks:   dense  smooth     PW     G-vecs:    dense   smooth      PW
     Min          50      50     11                18754    18754    2312
     Max          52      52     14                18892    18892    2426
     Sum       12387   12387   3101              4520369  4520369  565145

     Using Slab Decomposition



     bravais-lattice index     =            0
     lattice parameter (alat)  =      21.3406  a.u.
     unit-cell volume          =   39187.6345 (a.u.)^3
     number of atoms/cell      =          288
     number of atomic types    =            4
     number of electrons       =      1800.00
     number of Kohn-Sham states=         1080
     kinetic-energy cutoff     =      90.0000  Ry
     charge density cutoff     =     360.0000  Ry
     scf convergence threshold =      1.0E-09
     mixing beta               =       0.7000
     number of iterations used =            8  plain     mixing
     Exchange-correlation= PBE
                           (   1   4   3   4   0   0   0)

     celldm(1)=  21.340634  celldm(2)=   0.000000  celldm(3)=   0.000000
     celldm(4)=   0.000000  celldm(5)=   0.000000  celldm(6)=   0.000000

     crystal axes: (cart. coord. in units of alat)
               a(1) = (   1.000000   0.000000   0.000000 )  
               a(2) = (  -0.316403   0.948624   0.000000 )  
               a(3) = (   0.000000   0.000000   4.250429 )  

     reciprocal axes: (cart. coord. in units 2 pi/alat)
               b(1) = (  1.000000  0.333539 -0.000000 )  
               b(2) = (  0.000000  1.054158  0.000000 )  
               b(3) = (  0.000000 -0.000000  0.235270 )  


     PseudoPot. # 1 for Li read from file:
     ./Li.upf
     MD5 check sum: 36b212ba84a3343c64836813e23b5a31
     Pseudo is Norm-conserving, Zval =  3.0
     Generated using ONCVPSP code by D. R. Hamann
     Using radial grid of 1938 points,  4 beta functions with: 
                l(1) =   0
                l(2) =   0
                l(3) =   1
                l(4) =   1

     PseudoPot. # 2 for La read from file:
     ./La.upf
     MD5 check sum: 94ac605e04917972278bb538f6bd832e
     Pseudo is Norm-conserving + core correction, Zval = 11.0
     Generated using ONCVPSP code by D. R. Hamann
     Using radial grid of 1816 points,  8 beta functions with: 
                l(1) =   0
                l(2) =   0
                l(3) =   1
                l(4) =   1
                l(5) =   2
                l(6) =   2
                l(7) =   3
                l(8) =   3

     PseudoPot. # 3 for Zr read from file:
     ./Zr.upf
     MD5 check sum: 7356faafce8c11995bde75aded518977
     Pseudo is Norm-conserving + core correction, Zval = 12.0
     Generated using ONCVPSP code by D. R. Hamann
     Using radial grid of 1612 points,  6 beta functions with: 
                l(1) =   0
                l(2) =   0
                l(3) =   1
                l(4) =   1
                l(5) =   2
                l(6) =   2

     PseudoPot. # 4 for O  read from file:
     ./O.upf
     MD5 check sum: f9f408bc39120c85e44a0bb1c57dbd9f
     Pseudo is Norm-conserving + core correction, Zval =  6.0
     Generated using ONCVPSP code by D. R. Hamann
     Using radial grid of  934 points,  5 beta functions with: 
                l(1) =   0
                l(2) =   0
                l(3) =   1
                l(4) =   1
                l(5) =   2

     atomic species   valence    mass     pseudopotential
        Li             3.00     6.90000     Li( 1.00)
        La            11.00   139.00000     La( 1.00)
        Zr            12.00    91.22400     Zr( 1.00)
        O              6.00    16.00000     O ( 1.00)

     No symmetry found



   Cartesian axes

     site n.     atom                  positions (alat units)
         1           Li  tau(   1) = (  -0.0401741   0.5314518   0.9528658  )
         2           Li  tau(   2) = (   0.1309308   0.0696081   0.9385469  )
         3           Li  tau(   3) = (   0.8538406   0.0434466   0.9666809  )
         4           Li  tau(   4) = (   0.7118945   0.5489094   1.0005721  )
         5           Li  tau(   5) = (  -0.2409594   0.7769992   1.0208612  )
         6           Li  tau(   6) = (   0.3459555   0.9486075   1.0723897  )
         7           Li  tau(   7) = (   0.1356213   0.5221967   1.0728849  )
         8           Li  tau(   8) = (  -0.1896788   0.9477617   1.1409935  )
         9           Li  tau(   9) = (   0.6170900   0.5210270   1.1890965  )
        10           Li  tau(  10) = (   0.2309895   0.6668810   1.2076216  )
        11           Li  tau(  11) = (   0.2165960   0.9161132   1.2242957  )
        12           Li  tau(  12) = (   0.4182676   0.5328995   1.2974048  )
        13           Li  tau(  13) = (   0.2942079   0.0022691   1.2965237  )
        14           Li  tau(  14) = (   0.1771489   0.4655346   1.2882004  )
        15           Li  tau(  15) = (   0.6393455   0.1375649   1.3415002  )
        16           Li  tau(  16) = (   0.1335419   0.1468095   1.3351564  )
        17           Li  tau(  17) = (   0.6320857   0.3742104   1.3490262  )
        18           Li  tau(  18) = (   0.0399456   0.3312435   1.4167569  )
        19           Li  tau(  19) = (   0.8171725   0.2454882   1.4305787  )
        20           Li  tau(  20) = (   0.5613585   0.5676589   1.4466564  )
        21           Li  tau(  21) = (  -0.1079433   0.8954757   1.5056956  )
        22           Li  tau(  22) = (   0.7056349   0.1025367   1.5792814  )
        23           Li  tau(  23) = (   0.0320763   0.4625938   1.6111084  )
        24           Li  tau(  24) = (  -0.2553978   0.7734398   1.6148849  )
        25           Li  tau(  25) = (   0.5413538   0.6917385   1.6240346  )
        26           Li  tau(  26) = (  -0.0635491   0.6739187   1.6619951  )
        27           Li  tau(  27) = (  -0.0532046   0.8916387   1.7146366  )
        28           Li  tau(  28) = (   0.4428583   0.8747493   1.7009824  )
        29           Li  tau(  29) = (   0.5612555   0.0651713   1.7472496  )
        30           Li  tau(  30) = (   0.4193567   0.5433533   1.7379959  )
        31           Li  tau(  31) = (   0.2128411   0.4645996   1.7790350  )
        32           Li  tau(  32) = (   0.3581659   0.1027038   1.8261314  )
        33           Li  tau(  33) = (   0.3737168   0.3226177   1.8347685  )
        34           Li  tau(  34) = (  -0.0137717   0.4956248   1.8308839  )
        35           Li  tau(  35) = (   0.7503689   0.0750828   1.8671986  )
        36           Li  tau(  36) = (   0.4481022   0.4998232   1.9550951  )
        37           Li  tau(  37) = (   0.2360226   0.0770414   2.0097381  )
        38           Li  tau(  38) = (   0.8478227   0.2280218   2.0167662  )
        39           Li  tau(  39) = (  -0.1413950   0.4617279   2.0265256  )
        40           Li  tau(  40) = (   0.0279178   0.0844800   2.0985060  )
        41           Li  tau(  41) = (   0.6418812   0.4963596   2.1045683  )
        42           Li  tau(  42) = (   0.8006875   0.0225167   2.1037308  )
        43           Li  tau(  43) = (  -0.0415310   0.6284323   2.1538031  )
        44           Li  tau(  44) = (   0.4593846   0.6267310   2.1528822  )
        45           Li  tau(  45) = (  -0.0515820   0.8631856   2.1612773  )
        46           Li  tau(  46) = (   0.3581290   0.8224719   2.2309911  )
        47           Li  tau(  47) = (   0.1405007   0.7382607   2.2406643  )
        48           Li  tau(  48) = (   0.1905771   0.1113115   2.2480655  )
        49           Li  tau(  49) = (   0.5237185   0.4442202   2.3019042  )
        50           Li  tau(  50) = (   0.0237434   0.5980741   2.3881179  )
        51           Li  tau(  51) = (   0.6650222   0.0049314   2.4262732  )
        52           Li  tau(  52) = (   0.3814689   0.3172837   2.4230060  )
        53           Li  tau(  53) = (   0.1743810   0.2345610   2.4327829  )
        54           Li  tau(  54) = (   0.5710180   0.2062794   2.4867857  )
        55           Li  tau(  55) = (   0.5744325   0.4303424   2.5199329  )
        56           Li  tau(  56) = (   0.0740953   0.4177703   2.5111206  )
        57           Li  tau(  57) = (  -0.1187133   0.5610496   2.5584903  )
        58           Li  tau(  58) = (   0.0519769   0.0928062   2.5487406  )
        59           Li  tau(  59) = (   0.8445231   0.0127362   2.5939746  )
        60           Li  tau(  60) = (   0.6735025   0.5957282   2.6343368  )
        61           Li  tau(  61) = (   0.6905210   0.8193168   2.6413502  )
        62           Li  tau(  62) = (   0.6141528   0.0352054   2.6511848  )
        63           Li  tau(  63) = (   0.0704674   0.5661842   2.6824947  )
        64           Li  tau(  64) = (   0.0798383   0.0473235   2.7647392  )
        65           Li  tau(  65) = (   0.5499762   0.5657113   2.8171637  )
        66           Li  tau(  66) = (   0.1662536   0.7290179   2.8267159  )
        67           Li  tau(  67) = (   0.4855838   0.0094029   2.8481367  )
        68           Li  tau(  68) = (   0.3401180   0.5827416   2.9065538  )
        69           Li  tau(  69) = (   0.2652705   0.0454758   2.9235969  )
        70           Li  tau(  70) = (   0.1217015   0.5209083   2.9105600  )
        71           Li  tau(  71) = (   0.5876259   0.1828756   2.9787643  )
        72           Li  tau(  72) = (   0.0617813   0.1805987   2.9756636  )
        73           Li  tau(  73) = (   0.6004570   0.4102551   2.9836354  )
        74           Li  tau(  74) = (  -0.0044596   0.3772326   3.0327479  )
        75           Li  tau(  75) = (   0.7948367   0.3024377   3.0594680  )
        76           Li  tau(  76) = (   0.5091677   0.6011066   3.0432121  )
        77           Li  tau(  77) = (  -0.1997955   0.9442241   3.0930330  )
        78           Li  tau(  78) = (   0.6580205   0.1960587   3.1845357  )
        79           Li  tau(  79) = (  -0.0412607   0.5050288   3.2200147  )
        80           Li  tau(  80) = (   0.6619108   0.8213569   3.2164610  )
        81           Li  tau(  81) = (   0.4667152   0.7100722   3.2487273  )
        82           Li  tau(  82) = (  -0.1334777   0.7277058   3.2617371  )
        83           Li  tau(  83) = (   0.1972213   0.0072415   3.3132217  )
        84           Li  tau(  84) = (   0.3841945   0.9459370   3.2958967  )
        85           La  tau(  85) = (   0.2479666   0.7487271   0.9240042  )
        86           La  tau(  86) = (   0.3750830   0.1032760   1.0320986  )
        87           La  tau(  87) = (   0.4108498   0.4413654   1.0291867  )
        88           La  tau(  88) = (   0.8806724   0.0952360   1.2177249  )
        89           La  tau(  89) = (  -0.1115144   0.4403914   1.2069898  )
        90           La  tau(  90) = (   0.3760646   0.2649240   1.3186865  )
        91           La  tau(  91) = (   0.7174323   0.7529258   1.3274736  )
        92           La  tau(  92) = (   0.3852939   0.8033441   1.4174621  )
        93           La  tau(  93) = (   0.0478718   0.6837298   1.4086100  )
        94           La  tau(  94) = (   0.5387887   0.3299230   1.6169527  )
        95           La  tau(  95) = (   0.1996293   0.2146087   1.6222216  )
        96           La  tau(  96) = (   0.2034911   0.7447059   1.7210685  )
        97           La  tau(  97) = (   0.8639961   0.2787414   1.7232570  )
        98           La  tau(  98) = (   0.7018434   0.5770634   1.8232028  )
        99           La  tau(  99) = (  -0.2970985   0.9351959   1.8305622  )
       100           La  tau( 100) = (   0.1948814   0.5804426   2.0269246  )
       101           La  tau( 101) = (   0.2008393   0.9361509   2.0269931  )
       102           La  tau( 102) = (   0.6942969   0.7614671   2.1289111  )
       103           La  tau( 103) = (   0.3560223   0.2917327   2.1280650  )
       104           La  tau( 104) = (   0.0159556   0.3485602   2.2304904  )
       105           La  tau( 105) = (   0.6801921   0.2308445   2.2312122  )
       106           La  tau( 106) = (  -0.1442088   0.8263428   2.4265752  )
       107           La  tau( 107) = (   0.5166062   0.7090018   2.4331518  )
       108           La  tau( 108) = (   0.8340010   0.2908115   2.5370335  )
       109           La  tau( 109) = (   0.1818851   0.7690818   2.5317492  )
       110           La  tau( 110) = (   0.3321930   0.1209856   2.6350903  )
       111           La  tau( 111) = (   0.3348582   0.4773195   2.6399246  )
       112           La  tau( 112) = (   0.8231528   0.1229007   2.8479358  )
       113           La  tau( 113) = (   0.8296707   0.4821995   2.8374207  )
       114           La  tau( 114) = (   0.3249933   0.3055389   2.9378795  )
       115           La  tau( 115) = (   0.6753111   0.7805866   2.9234142  )
       116           La  tau( 116) = (   0.3308863   0.8479971   3.0456944  )
       117           La  tau( 117) = (  -0.0074688   0.7242774   3.0356819  )
       118           La  tau( 118) = (   0.4847919   0.3992438   3.2352228  )
       119           La  tau( 119) = (   0.1520868   0.2500207   3.2277706  )
       120           La  tau( 120) = (   0.1491760   0.7643674   3.3264251  )
       121           Zr  tau( 121) = (   0.6377188   0.2615917   1.1116843  )
       122           Zr  tau( 122) = (   0.1174388   0.2619688   1.0910098  )
       123           Zr  tau( 123) = (   0.4878526   0.7432788   1.1127195  )
       124           Zr  tau( 124) = (  -0.0118360   0.7402248   1.0886267  )
       125           Zr  tau( 125) = (   0.9493535   0.0392864   1.5232742  )
       126           Zr  tau( 126) = (   0.7958436   0.5120100   1.5176883  )
       127           Zr  tau( 127) = (   0.4474616   0.0311370   1.5200999  )
       128           Zr  tau( 128) = (   0.2925957   0.5079530   1.5183259  )
       129           Zr  tau( 129) = (  -0.0498924   0.7555169   1.9267789  )
       130           Zr  tau( 130) = (   0.4498379   0.7560736   1.9266420  )
       131           Zr  tau( 131) = (   0.1077390   0.2831502   1.9269117  )
       132           Zr  tau( 132) = (   0.6092200   0.2826131   1.9249006  )
       133           Zr  tau( 133) = (   0.2663741   0.5278757   2.3322722  )
       134           Zr  tau( 134) = (   0.4263547   0.0549622   2.3305043  )
       135           Zr  tau( 135) = (   0.7661909   0.5279926   2.3318425  )
       136           Zr  tau( 136) = (   0.9236358   0.0541269   2.3323735  )
       137           Zr  tau( 137) = (   0.5807740   0.2999254   2.7412308  )
       138           Zr  tau( 138) = (   0.0797148   0.2994099   2.7383551  )
       139           Zr  tau( 139) = (   0.4219125   0.7757587   2.7384962  )
       140           Zr  tau( 140) = (  -0.0711412   0.7779923   2.7326979  )
       141           Zr  tau( 141) = (   0.8838133   0.0895808   3.1700434  )
       142           Zr  tau( 142) = (   0.7357321   0.5547446   3.1472268  )
       143           Zr  tau( 143) = (   0.3918753   0.0677421   3.1653210  )
       144           Zr  tau( 144) = (   0.2374013   0.5399984   3.1427109  )
       145           O   tau( 145) = (   0.4273855   0.8436099   0.9651490  )
       146           O   tau( 146) = (   0.0824292   0.6442089   0.9516886  )
       147           O   tau( 147) = (   0.5045727   0.2652518   0.9807854  )
       148           O   tau( 148) = (   0.2239161   0.2105859   0.9506815  )
       149           O   tau( 149) = (  -0.1014333   0.8834309   1.0067566  )
       150           O   tau( 150) = (   0.5577909   0.5941607   1.0322859  )
       151           O   tau( 151) = (   0.7494457   0.1356069   1.0524431  )
       152           O   tau( 152) = (   0.0171743   0.4030213   1.0406726  )
       153           O   tau( 153) = (   0.7280356   0.4147732   1.0831274  )
       154           O   tau( 154) = (   0.0126613   0.1121503   1.0480922  )
       155           O   tau( 155) = (   0.3212924   0.6382680   1.0707820  )
       156           O   tau( 156) = (   0.1522364   0.8556475   1.0656204  )
       157           O   tau( 157) = (  -0.1515598   0.6334951   1.0448072  )
       158           O   tau( 158) = (   0.6471026   0.8304250   1.1361875  )
       159           O   tau( 159) = (   0.2508743   0.3897829   1.1545287  )
       160           O   tau( 160) = (   0.5160530   0.1361178   1.1966360  )
       161           O   tau( 161) = (   0.5073038   0.3939765   1.2038700  )
       162           O   tau( 162) = (   0.2406841   0.1341097   1.1941272  )
       163           O   tau( 163) = (   0.3894770   0.8738009   1.2168197  )
       164           O   tau( 164) = (   0.0679953   0.6069637   1.2057346  )
       165           O   tau( 165) = (   0.0148968   0.2664882   1.2550713  )
       166           O   tau( 166) = (   0.7419805   0.2610841   1.2740031  )
       167           O   tau( 167) = (  -0.0793091   0.7998422   1.2561650  )
       168           O   tau( 168) = (   0.5142695   0.6692848   1.2867600  )
       169           O   tau( 169) = (   0.7120629   0.5281451   1.3489026  )
       170           O   tau( 170) = (   0.0344042   0.0151908   1.3568875  )
       171           O   tau( 171) = (   0.2666255   0.6046510   1.3601069  )
       172           O   tau( 172) = (   0.1714062   0.8648654   1.3751109  )
       173           O   tau( 173) = (   0.7887906   0.0709345   1.4308889  )
       174           O   tau( 174) = (  -0.0456162   0.4766592   1.4253234  )
       175           O   tau( 175) = (   0.2858863   0.0920937   1.4427768  )
       176           O   tau( 176) = (   0.4538073   0.4384712   1.4438990  )
       177           O   tau( 177) = (   0.2098197   0.3553652   1.4401462  )
       178           O   tau( 178) = (   0.5301429   0.1870787   1.4556395  )
       179           O   tau( 179) = (  -0.1547780   0.6971069   1.5008447  )
       180           O   tau( 180) = (   0.5945490   0.8028747   1.5065814  )
       181           O   tau( 181) = (  -0.0068685   0.2205628   1.5383633  )
       182           O   tau( 182) = (   0.7426216   0.3340107   1.5459333  )
       183           O   tau( 183) = (   0.0399908   0.8296294   1.5899910  )
       184           O   tau( 184) = (   0.3789678   0.6570843   1.5930099  )
       185           O   tau( 185) = (   0.2891978   0.9158865   1.6017976  )
       186           O   tau( 186) = (   0.1382820   0.5859127   1.5895691  )
       187           O   tau( 187) = (   0.6362398   0.5526996   1.6108003  )
       188           O   tau( 188) = (   0.1055337   0.0029184   1.6240961  )
       189           O   tau( 189) = (   0.4065014   0.1404890   1.6685327  )
       190           O   tau( 190) = (   0.3276682   0.4006998   1.6706198  )
       191           O   tau( 191) = (   0.8574166   0.0606502   1.6871912  )
       192           O   tau( 192) = (  -0.1206837   0.5058734   1.6873595  )
       193           O   tau( 193) = (   0.0748446   0.3609066   1.7569096  )
       194           O   tau( 194) = (   0.6583611   0.2018628   1.7601440  )
       195           O   tau( 195) = (  -0.1617902   0.7586617   1.7750471  )
       196           O   tau( 196) = (   0.5664267   0.7537696   1.7783762  )
       197           O   tau( 197) = (   0.5255665   0.4202697   1.8256546  )
       198           O   tau( 198) = (   0.1941281   0.1421395   1.8360412  )
       199           O   tau( 199) = (   0.0728304   0.6332688   1.8516382  )
       200           O   tau( 200) = (   0.3375721   0.8844472   1.8456956  )
       201           O   tau( 201) = (   0.0656870   0.8861457   1.8550115  )
       202           O   tau( 202) = (   0.3354542   0.6204574   1.8600583  )
       203           O   tau( 203) = (  -0.0472477   0.1800914   1.9001238  )
       204           O   tau( 204) = (   0.7686233   0.3809156   1.9053961  )
       205           O   tau( 205) = (   0.4483865   0.1861070   1.9411677  )
       206           O   tau( 206) = (   0.2649960   0.3880809   1.9432240  )
       207           O   tau( 207) = (   0.5709288   0.8839403   1.9944713  )
       208           O   tau( 208) = (  -0.1673537   0.6276893   1.9977306  )
       209           O   tau( 209) = (  -0.1654682   0.8820626   2.0083693  )
       210           O   tau( 210) = (   0.5600381   0.6235178   2.0052012  )
       211           O   tau( 211) = (   0.0245008   0.4227645   2.0207037  )
       212           O   tau( 212) = (   0.6934143   0.1416167   2.0188874  )
       213           O   tau( 213) = (   0.3325048   0.7614689   2.0732631  )
       214           O   tau( 214) = (   0.0600008   0.7567758   2.0811248  )
       215           O   tau( 215) = (   0.5600722   0.3542588   2.0917822  )
       216           O   tau( 216) = (   0.1457504   0.2075857   2.0956848  )
       217           O   tau( 217) = (   0.3424480   0.0663831   2.1616537  )
       218           O   tau( 218) = (   0.3499709   0.5045145   2.1651137  )
       219           O   tau( 219) = (   0.8907038   0.1580552   2.1773262  )
       220           O   tau( 220) = (   0.8085045   0.4187644   2.1847239  )
       221           O   tau( 221) = (   0.1059741   0.5637683   2.2383457  )
       222           O   tau( 222) = (   0.5853912   0.0192002   2.2375818  )
       223           O   tau( 223) = (   0.6054538   0.5901802   2.2525974  )
       224           O   tau( 224) = (  -0.2356788   0.9335534   2.2509666  )
       225           O   tau( 225) = (   0.5235546   0.8499673   2.2620540  )
       226           O   tau( 226) = (  -0.1502241   0.6836438   2.2648068  )
       227           O   tau( 227) = (   0.4759516   0.2367742   2.3122298  )
       228           O   tau( 228) = (   0.2252583   0.3452255   2.3158339  )
       229           O   tau( 229) = (   0.3089769   0.7106516   2.3507560  )
       230           O   tau( 230) = (   0.0598438   0.8236304   2.3555445  )
       231           O   tau( 231) = (   0.6748381   0.3761921   2.3982177  )
       232           O   tau( 232) = (   0.0096835   0.2052172   2.4050826  )
       233           O   tau( 233) = (  -0.0767336   0.4627083   2.4129477  )
       234           O   tau( 234) = (   0.7684597   0.1308599   2.4072604  )
       235           O   tau( 235) = (   0.2654941   0.0921704   2.4220922  )
       236           O   tau( 236) = (   0.4239097   0.4926305   2.4310885  )
       237           O   tau( 237) = (   0.7246502   0.6382534   2.4789915  )
       238           O   tau( 238) = (   0.6455974   0.8977877   2.4841063  )
       239           O   tau( 239) = (   0.1746452   0.5506560   2.4963779  )
       240           O   tau( 240) = (   0.5090804   0.0462714   2.5006341  )
       241           O   tau( 241) = (   0.3895869   0.8531902   2.5696702  )
       242           O   tau( 242) = (  -0.0222483   0.6973276   2.5697583  )
       243           O   tau( 243) = (   0.4682703   0.2986710   2.5875376  )
       244           O   tau( 244) = (   0.1963774   0.2930768   2.5898446  )
       245           O   tau( 245) = (  -0.1556603   0.9168492   2.6368487  )
       246           O   tau( 246) = (   0.5093213   0.6349919   2.6490719  )
       247           O   tau( 247) = (   0.6988948   0.1762794   2.6637520  )
       248           O   tau( 248) = (  -0.0306307   0.4300256   2.6567819  )
       249           O   tau( 249) = (   0.6941465   0.4300435   2.6652903  )
       250           O   tau( 250) = (  -0.0348807   0.1650300   2.6716964  )
       251           O   tau( 251) = (   0.2682703   0.6705035   2.7126025  )
       252           O   tau( 252) = (   0.0876737   0.8760775   2.7198171  )
       253           O   tau( 253) = (   0.7674728   0.6823684   2.7451133  )
       254           O   tau( 254) = (   0.5784280   0.8815986   2.7516547  )
       255           O   tau( 255) = (   0.2016423   0.4283146   2.8021403  )
       256           O   tau( 256) = (   0.4631313   0.1753190   2.8217422  )
       257           O   tau( 257) = (   0.4604479   0.4266897   2.8158828  )
       258           O   tau( 258) = (   0.1893437   0.1692683   2.8197750  )
       259           O   tau( 259) = (   0.3341957   0.9123330   2.8338235  )
       260           O   tau( 260) = (   0.0109518   0.6377609   2.8309482  )
       261           O   tau( 261) = (  -0.0405151   0.3044934   2.8830219  )
       262           O   tau( 262) = (   0.6919956   0.3036649   2.8916371  )
       263           O   tau( 263) = (  -0.1219692   0.8480587   2.8995149  )
       264           O   tau( 264) = (   0.4601571   0.7057095   2.9116319  )
       265           O   tau( 265) = (   0.6610157   0.5647212   2.9590270  )
       266           O   tau( 266) = (   0.9721176   0.0366668   2.9864638  )
       267           O   tau( 267) = (   0.2062559   0.6531552   2.9902705  )
       268           O   tau( 268) = (   0.1173061   0.9087102   3.0123843  )
       269           O   tau( 269) = (   0.7308552   0.1106778   3.0466528  )
       270           O   tau( 270) = (  -0.1039457   0.5145492   3.0462299  )
       271           O   tau( 271) = (   0.2352366   0.1314950   3.0693376  )
       272           O   tau( 272) = (   0.3974793   0.4778629   3.0590249  )
       273           O   tau( 273) = (   0.1584567   0.3955862   3.0575547  )
       274           O   tau( 274) = (   0.4783659   0.2212572   3.1116490  )
       275           O   tau( 275) = (  -0.2250217   0.7449031   3.1155313  )
       276           O   tau( 276) = (   0.5003556   0.8579194   3.1855030  )
       277           O   tau( 277) = (  -0.0398109   0.2555246   3.1385110  )
       278           O   tau( 278) = (   0.6721747   0.3781719   3.1448816  )
       279           O   tau( 279) = (  -0.0128929   0.8464739   3.2354956  )
       280           O   tau( 280) = (   0.3073175   0.6932600   3.2299859  )
       281           O   tau( 281) = (   0.2247218   0.9322135   3.2444881  )
       282           O   tau( 282) = (   0.0815148   0.6133238   3.2143656  )
       283           O   tau( 283) = (   0.5648201   0.5886521   3.2126606  )
       284           O   tau( 284) = (   0.0469442   0.0332460   3.2464786  )
       285           O   tau( 285) = (   0.3020974   0.1360316   3.3077066  )
       286           O   tau( 286) = (   0.2794488   0.4199818   3.2760468  )
       287           O   tau( 287) = (   0.7704661   0.1392517   3.2929744  )
       288           O   tau( 288) = (  -0.1679624   0.5739047   3.2927061  )

     number of k points=     1  Fermi-Dirac smearing, width (Ry)=  0.0000
                       cart. coord. in units 2pi/alat
        k(    1) = (   0.0000000   0.0000000   0.0000000), wk =   2.0000000

     Dense  grid:  2260185 G-vectors     FFT dimensions: ( 135, 135, 576)

     Estimated max dynamical RAM per process >     229.15 MB

     Estimated total dynamical RAM >      53.71 GB

     Initial potential from superposition of free atoms

     starting charge    1799.2393, renormalised to    1800.0000

     negative rho (up, down):  4.061E-04 0.000E+00

     Adding external electric field

     Computed dipole along edir(3) : 
        Dipole               -0.0004 Ry au,         -0.0010 Debye
        Dipole field         -0.0000 Ry au, 

        E field amplitude [Ha a.u.]: -1.2500E-03
        Potential amp.       -0.1814 Ry
        Total length         72.5655 bohr

     Starting wfcs are 1344 atomic wfcs

     total cpu time spent up to now is        5.4 secs

     Self-consistent Calculation

     iteration #  1     ecut=    90.00 Ry     beta= 0.70
     Davidson diagonalization with overlap
     ethr =  1.00E-02,  avg # of iterations =  2.0

     negative rho (up, down):  1.125E-04 0.000E+00

     Adding external electric field

     Computed dipole along edir(3) : 
        Dipole               -3.6958 Ry au,         -9.3938 Debye
        Dipole field         -0.0012 Ry au, 

        E field amplitude [Ha a.u.]: -1.2500E-03
        Potential amp.       -0.0094 Ry
        Total length         72.5655 bohr


     total cpu time spent up to now is       12.1 secs

     total energy              =  -10936.66723013 Ry
     estimated scf accuracy    <      84.72849500 Ry

     iteration #  2     ecut=    90.00 Ry     beta= 0.70
     Davidson diagonalization with overlap
     ethr =  4.71E-03,  avg # of iterations =  4.0

     negative rho (up, down):  4.342E-05 0.000E+00

     Adding external electric field

     Computed dipole along edir(3) : 
        Dipole               55.5860 Ry au,        141.2856 Debye
        Dipole field          0.0178 Ry au, 

        E field amplitude [Ha a.u.]: -1.2500E-03
        Potential amp.       -2.7684 Ry
        Total length         72.5655 bohr


     total cpu time spent up to now is       22.0 secs

     total energy              =  -10919.28416884 Ry
     estimated scf accuracy    <     270.39437588 Ry

     iteration #  3     ecut=    90.00 Ry     beta= 0.70
     Davidson diagonalization with overlap
     ethr =  4.71E-03,  avg # of iterations = 14.0

     negative rho (up, down):  3.183E-05 0.000E+00

     Adding external electric field

     Computed dipole along edir(3) : 
        Dipole                0.9646 Ry au,          2.4518 Debye
        Dipole field          0.0003 Ry au, 

        E field amplitude [Ha a.u.]: -1.2500E-03
        Potential amp.       -0.2263 Ry
        Total length         72.5655 bohr


     total cpu time spent up to now is       46.7 secs

     total energy              =  -10374.06567492 Ry
     estimated scf accuracy    <  277078.65592475 Ry

     iteration #  4     ecut=    90.00 Ry     beta= 0.70
     Davidson diagonalization with overlap
     ethr =  4.71E-03,  avg # of iterations = 17.0

     negative rho (up, down):  1.097E-05 0.000E+00

     Adding external electric field

     Computed dipole along edir(3) : 
        Dipole               -1.7841 Ry au,         -4.5347 Debye
        Dipole field         -0.0006 Ry au, 

        E field amplitude [Ha a.u.]: -1.2500E-03
        Potential amp.       -0.0984 Ry
        Total length         72.5655 bohr


     total cpu time spent up to now is       70.5 secs

     total energy              =  -10900.55429582 Ry
     estimated scf accuracy    <    9040.77842027 Ry

     iteration #  5     ecut=    90.00 Ry     beta= 0.70
     Davidson diagonalization with overlap
     ethr =  4.71E-03,  avg # of iterations = 12.0

     negative rho (up, down):  2.962E-07 0.000E+00

     Adding external electric field

     Computed dipole along edir(3) : 
        Dipole               -3.0906 Ry au,         -7.8555 Debye
        Dipole field         -0.0010 Ry au, 

        E field amplitude [Ha a.u.]: -1.2500E-03
        Potential amp.       -0.0376 Ry
        Total length         72.5655 bohr


     total cpu time spent up to now is       81.8 secs

     total energy              =  -10960.64724917 Ry
     estimated scf accuracy    <    1629.54745986 Ry

     iteration #  6     ecut=    90.00 Ry     beta= 0.70
     Davidson diagonalization with overlap
     ethr =  4.71E-03,  avg # of iterations =  9.0

     negative rho (up, down):  4.939E-03 0.000E+00

     Adding external electric field

     Computed dipole along edir(3) : 
        Dipole               -3.8949 Ry au,         -9.8999 Debye
        Dipole field         -0.0012 Ry au, 

        E field amplitude [Ha a.u.]: -1.2500E-03
        Potential amp.       -0.0001 Ry
        Total length         72.5655 bohr


     total cpu time spent up to now is       89.4 secs

     total energy              =  -10972.69209228 Ry
     estimated scf accuracy    <     199.39776514 Ry

     iteration #  7     ecut=    90.00 Ry     beta= 0.70
     Davidson diagonalization with overlap
     ethr =  4.71E-03,  avg # of iterations =  6.0

     negative rho (up, down):  1.624E-05 0.000E+00

     Adding external electric field

     Computed dipole along edir(3) : 
        Dipole               -2.9513 Ry au,         -7.5014 Debye
        Dipole field         -0.0009 Ry au, 

        E field amplitude [Ha a.u.]: -1.2500E-03
        Potential amp.       -0.0441 Ry
        Total length         72.5655 bohr


     total cpu time spent up to now is       96.2 secs

     total energy              =  -10979.17729569 Ry
     estimated scf accuracy    <       5.43407419 Ry

     iteration #  8     ecut=    90.00 Ry     beta= 0.70
     Davidson diagonalization with overlap
     ethr =  3.02E-04,  avg # of iterations = 10.0

     negative rho (up, down):  3.076E-04 0.000E+00

     Adding external electric field

     Computed dipole along edir(3) : 
        Dipole               -2.0067 Ry au,         -5.1006 Debye
        Dipole field         -0.0006 Ry au, 

        E field amplitude [Ha a.u.]: -1.2500E-03
        Potential amp.       -0.0880 Ry
        Total length         72.5655 bohr


     total cpu time spent up to now is      107.4 secs

     total energy              =  -10980.12458914 Ry
     estimated scf accuracy    <       1.68356747 Ry

     iteration #  9     ecut=    90.00 Ry     beta= 0.70
     Davidson diagonalization with overlap
     ethr =  9.35E-05,  avg # of iterations = 18.0

     negative rho (up, down):  2.745E-03 0.000E+00

     Adding external electric field

     Computed dipole along edir(3) : 
        Dipole               -2.6385 Ry au,         -6.7063 Debye
        Dipole field         -0.0008 Ry au, 

        E field amplitude [Ha a.u.]: -1.2500E-03
        Potential amp.       -0.0586 Ry
        Total length         72.5655 bohr


     total cpu time spent up to now is      123.3 secs

     total energy              =  -10980.14358830 Ry
     estimated scf accuracy    <       0.66613935 Ry

     iteration # 10     ecut=    90.00 Ry     beta= 0.70
     Davidson diagonalization with overlap
     c_bands:  3 eigenvalues not converged
     ethr =  3.70E-05,  avg # of iterations = 20.0

     negative rho (up, down):  1.122E-03 0.000E+00

     Adding external electric field

     Computed dipole along edir(3) : 
        Dipole               -2.2613 Ry au,         -5.7476 Debye
        Dipole field         -0.0007 Ry au, 

        E field amplitude [Ha a.u.]: -1.2500E-03
        Potential amp.       -0.0762 Ry
        Total length         72.5655 bohr


     total cpu time spent up to now is      135.6 secs

     total energy              =  -10980.23929296 Ry
     estimated scf accuracy    <       0.09922407 Ry

     iteration # 11     ecut=    90.00 Ry     beta= 0.70
     Davidson diagonalization with overlap
     ethr =  5.51E-06,  avg # of iterations = 52.0

     negative rho (up, down):  6.553E-04 0.000E+00

     Adding external electric field

     Computed dipole along edir(3) : 
        Dipole               -2.5571 Ry au,         -6.4995 Debye
        Dipole field         -0.0008 Ry au, 

        E field amplitude [Ha a.u.]: -1.2500E-03
        Potential amp.       -0.0624 Ry
        Total length         72.5655 bohr


     total cpu time spent up to now is      172.2 secs

     total energy              =  -10980.25427395 Ry
     estimated scf accuracy    <       0.09201086 Ry

     iteration # 12     ecut=    90.00 Ry     beta= 0.70
     Davidson diagonalization with overlap
     ethr =  5.11E-06,  avg # of iterations = 13.0

     negative rho (up, down):  2.630E-08 0.000E+00

     Adding external electric field

     Computed dipole along edir(3) : 
        Dipole               -1.0645 Ry au,         -2.7057 Debye
        Dipole field         -0.0003 Ry au, 

        E field amplitude [Ha a.u.]: -1.2500E-03
        Potential amp.       -0.1319 Ry
        Total length         72.5655 bohr


     total cpu time spent up to now is      181.1 secs

     total energy              =  -10980.24519918 Ry
     estimated scf accuracy    <       0.03247838 Ry

     iteration # 13     ecut=    90.00 Ry     beta= 0.70
     Davidson diagonalization with overlap
     ethr =  1.80E-06,  avg # of iterations = 62.0

     negative rho (up, down):  9.774E-05 0.000E+00

     Adding external electric field

     Computed dipole along edir(3) : 
        Dipole               -1.7671 Ry au,         -4.4916 Debye
        Dipole field         -0.0006 Ry au, 

        E field amplitude [Ha a.u.]: -1.2500E-03
        Potential amp.       -0.0992 Ry
        Total length         72.5655 bohr


     total cpu time spent up to now is      228.5 secs

     total energy              =  -10980.24438420 Ry
     estimated scf accuracy    <       0.09745958 Ry

     iteration # 14     ecut=    90.00 Ry     beta= 0.70
     Davidson diagonalization with overlap
     c_bands:  3 eigenvalues not converged
     ethr =  1.80E-06,  avg # of iterations = 60.0

     negative rho (up, down):  5.801E-05 0.000E+00

     Adding external electric field

     Computed dipole along edir(3) : 
        Dipole               -1.8723 Ry au,         -4.7590 Debye
        Dipole field         -0.0006 Ry au, 

        E field amplitude [Ha a.u.]: -1.2500E-03
        Potential amp.       -0.0943 Ry
        Total length         72.5655 bohr


     total cpu time spent up to now is      265.8 secs

     total energy              =  -10980.25819664 Ry
     estimated scf accuracy    <       0.01459354 Ry

     iteration # 15     ecut=    90.00 Ry     beta= 0.70
     Davidson diagonalization with overlap
     ethr =  8.11E-07,  avg # of iterations = 62.0

     negative rho (up, down):  1.644E-04 0.000E+00

     Adding external electric field

     Computed dipole along edir(3) : 
        Dipole               -3.3062 Ry au,         -8.4036 Debye
        Dipole field         -0.0011 Ry au, 

        E field amplitude [Ha a.u.]: -1.2500E-03
        Potential amp.       -0.0275 Ry
        Total length         72.5655 bohr


     total cpu time spent up to now is      300.8 secs

     total energy              =  -10980.25651460 Ry
     estimated scf accuracy    <       0.00489460 Ry

     iteration # 16     ecut=    90.00 Ry     beta= 0.70
     Davidson diagonalization with overlap
     c_bands:  3 eigenvalues not converged
     ethr =  2.72E-07,  avg # of iterations = 80.0

     negative rho (up, down):  1.129E-05 0.000E+00

     Adding external electric field

     Computed dipole along edir(3) : 
        Dipole               -2.4046 Ry au,         -6.1119 Debye
        Dipole field         -0.0008 Ry au, 

        E field amplitude [Ha a.u.]: -1.2500E-03
        Potential amp.       -0.0695 Ry
        Total length         72.5655 bohr


     total cpu time spent up to now is      356.7 secs

     total energy              =  -10980.25663570 Ry
     estimated scf accuracy    <       0.01521890 Ry

     iteration # 17     ecut=    90.00 Ry     beta= 0.70
     Davidson diagonalization with overlap
     c_bands:  1 eigenvalues not converged
     ethr =  2.72E-07,  avg # of iterations = 80.0

     negative rho (up, down):  8.075E-06 0.000E+00

     Adding external electric field

     Computed dipole along edir(3) : 
        Dipole               -2.4008 Ry au,         -6.1023 Debye
        Dipole field         -0.0008 Ry au, 

        E field amplitude [Ha a.u.]: -1.2500E-03
        Potential amp.       -0.0697 Ry
        Total length         72.5655 bohr


     total cpu time spent up to now is      403.5 secs

     total energy              =  -10980.25913748 Ry
     estimated scf accuracy    <       0.00050219 Ry

     iteration # 18     ecut=    90.00 Ry     beta= 0.70
     Davidson diagonalization with overlap
     ethr =  2.79E-08,  avg # of iterations =  3.0

     negative rho (up, down):  4.583E-06 0.000E+00

     Adding external electric field

     Computed dipole along edir(3) : 
        Dipole               -2.4052 Ry au,         -6.1134 Debye
        Dipole field         -0.0008 Ry au, 

        E field amplitude [Ha a.u.]: -1.2500E-03
        Potential amp.       -0.0695 Ry
        Total length         72.5655 bohr


     total cpu time spent up to now is      410.9 secs

     total energy              =  -10980.25923905 Ry
     estimated scf accuracy    <       0.00001526 Ry

     iteration # 19     ecut=    90.00 Ry     beta= 0.70
     Davidson diagonalization with overlap
     ethr =  8.48E-10,  avg # of iterations =  7.0

     negative rho (up, down):  7.578E-07 0.000E+00

     Adding external electric field

     Computed dipole along edir(3) : 
        Dipole               -2.4003 Ry au,         -6.1010 Debye
        Dipole field         -0.0008 Ry au, 

        E field amplitude [Ha a.u.]: -1.2500E-03
        Potential amp.       -0.0697 Ry
        Total length         72.5655 bohr


     total cpu time spent up to now is      423.2 secs

     total energy              =  -10980.25924405 Ry
     estimated scf accuracy    <       0.00003325 Ry

     iteration # 20     ecut=    90.00 Ry     beta= 0.70
     Davidson diagonalization with overlap
     ethr =  8.48E-10,  avg # of iterations =  4.0

     negative rho (up, down):  2.131E-08 0.000E+00

     Adding external electric field

     Computed dipole along edir(3) : 
        Dipole               -2.3998 Ry au,         -6.0996 Debye
        Dipole field         -0.0008 Ry au, 

        E field amplitude [Ha a.u.]: -1.2500E-03
        Potential amp.       -0.0697 Ry
        Total length         72.5655 bohr


     total cpu time spent up to now is      431.5 secs

     total energy              =  -10980.25924806 Ry
     estimated scf accuracy    <       0.00000547 Ry

     iteration # 21     ecut=    90.00 Ry     beta= 0.70
     Davidson diagonalization with overlap
     ethr =  3.04E-10,  avg # of iterations =  4.0

     Adding external electric field

     Computed dipole along edir(3) : 
        Dipole               -2.3970 Ry au,         -6.0925 Debye
        Dipole field         -0.0008 Ry au, 

        E field amplitude [Ha a.u.]: -1.2500E-03
        Potential amp.       -0.0699 Ry
        Total length         72.5655 bohr


     total cpu time spent up to now is      439.1 secs

     total energy              =  -10980.25924865 Ry
     estimated scf accuracy    <       0.00000092 Ry

     iteration # 22     ecut=    90.00 Ry     beta= 0.70
     Davidson diagonalization with overlap
     ethr =  5.10E-11,  avg # of iterations =  5.0

     Adding external electric field

     Computed dipole along edir(3) : 
        Dipole               -2.3972 Ry au,         -6.0931 Debye
        Dipole field         -0.0008 Ry au, 

        E field amplitude [Ha a.u.]: -1.2500E-03
        Potential amp.       -0.0698 Ry
        Total length         72.5655 bohr


     total cpu time spent up to now is      448.3 secs

     total energy              =  -10980.25924894 Ry
     estimated scf accuracy    <       0.00000024 Ry

     iteration # 23     ecut=    90.00 Ry     beta= 0.70
     Davidson diagonalization with overlap
     ethr =  1.33E-11,  avg # of iterations =  5.0

     Adding external electric field

     Computed dipole along edir(3) : 
        Dipole               -2.3975 Ry au,         -6.0938 Debye
        Dipole field         -0.0008 Ry au, 

        E field amplitude [Ha a.u.]: -1.2500E-03
        Potential amp.       -0.0698 Ry
        Total length         72.5655 bohr


     total cpu time spent up to now is      456.0 secs

     total energy              =  -10980.25924898 Ry
     estimated scf accuracy    <       0.00000005 Ry

     iteration # 24     ecut=    90.00 Ry     beta= 0.70
     Davidson diagonalization with overlap
     ethr =  2.81E-12,  avg # of iterations =  5.0

     Adding external electric field

     Computed dipole along edir(3) : 
        Dipole               -2.3975 Ry au,         -6.0937 Debye
        Dipole field         -0.0008 Ry au, 

        E field amplitude [Ha a.u.]: -1.2500E-03
        Potential amp.       -0.0698 Ry
        Total length         72.5655 bohr


     total cpu time spent up to now is      463.8 secs

     total energy              =  -10980.25924898 Ry
     estimated scf accuracy    <          9.8E-09 Ry

     iteration # 25     ecut=    90.00 Ry     beta= 0.70
     Davidson diagonalization with overlap
     ethr =  5.42E-13,  avg # of iterations =  5.0

     Adding external electric field

     Computed dipole along edir(3) : 
        Dipole               -2.3975 Ry au,         -6.0938 Debye
        Dipole field         -0.0008 Ry au, 

        E field amplitude [Ha a.u.]: -1.2500E-03
        Potential amp.       -0.0698 Ry
        Total length         72.5655 bohr


     total cpu time spent up to now is      472.6 secs

     total energy              =  -10980.25924899 Ry
     estimated scf accuracy    <          1.2E-09 Ry

     iteration # 26     ecut=    90.00 Ry     beta= 0.70
     Davidson diagonalization with overlap
     ethr =  1.00E-13,  avg # of iterations =  5.0

     Adding external electric field

     Computed dipole along edir(3) : 
        Dipole               -2.3973 Ry au,         -6.0934 Debye
        Dipole field         -0.0008 Ry au, 

        E field amplitude [Ha a.u.]: -1.2500E-03
        Potential amp.       -0.0698 Ry
        Total length         72.5655 bohr


     total cpu time spent up to now is      480.5 secs

     End of self-consistent calculation

          k = 0.0000 0.0000 0.0000 (282573 PWs)   bands (ev):

   -44.7149 -44.5918 -44.5228 -44.5075 -44.4937 -44.4802 -44.4735 -44.4584
   -44.4583 -44.4505 -44.4476 -44.4176 -44.4041 -44.4040 -44.4008 -44.3791
   -44.3703 -44.3695 -44.3589 -44.3443 -44.1478 -44.1284 -44.0677 -43.9859
   -41.0130 -40.9524 -40.9118 -40.8930 -40.8589 -40.8580 -40.8063 -40.7975
   -40.7871 -40.7845 -40.7829 -40.7630 -40.7597 -40.7591 -40.7502 -40.7325
   -40.7222 -40.7183 -40.6984 -40.6971 -40.6870 -40.6816 -40.6714 -40.6709
   -40.6691 -40.6689 -40.6618 -40.6521 -40.6468 -40.6333 -40.6299 -40.6237
   -40.6213 -40.6144 -40.6070 -40.6024 -40.5973 -40.5846 -40.5755 -40.5748
   -40.5647 -40.5610 -40.5568 -40.5511 -40.5493 -40.5486 -40.5402 -40.5247
   -40.5237 -40.5186 -40.5169 -40.5075 -40.5027 -40.4885 -40.4855 -40.4833
   -40.4751 -40.4672 -40.4655 -40.4635 -40.4598 -40.4537 -40.4219 -40.4157
   -40.3981 -40.3959 -40.3262 -40.3011 -40.2423 -40.2015 -40.1753 -40.1213
   -40.1047 -39.9139 -39.8796 -39.8498 -39.6355 -39.6304 -39.5780 -39.5700
   -39.5651 -39.5438 -39.5348 -39.5201 -28.0574 -27.6067 -27.6048 -27.5593
   -27.4829 -27.4614 -27.4346 -27.3880 -27.3804 -27.3597 -27.3566 -27.3458
   -27.3355 -27.3309 -27.2694 -27.2421 -27.2248 -27.1915 -27.1914 -27.1725
   -27.1594 -27.1578 -27.1396 -27.1373 -27.1305 -27.1246 -27.1022 -27.0974
   -27.0807 -27.0670 -27.0663 -27.0415 -27.0359 -27.0103 -26.9987 -26.9298
   -22.9581 -22.9422 -22.9075 -22.8983 -22.8721 -22.8364 -22.8118 -22.8025
   -22.7891 -22.7863 -22.7785 -22.7587 -22.7501 -22.7459 -22.7449 -22.7433
   -22.7415 -22.7376 -22.7357 -22.7336 -22.7330 -22.7216 -22.7166 -22.7157
   -22.7083 -22.7066 -22.7011 -22.6978 -22.6890 -22.6884 -22.6871 -22.6855
   -22.6820 -22.6754 -22.6742 -22.6722 -22.6720 -22.6649 -22.6608 -22.6602
   -22.6574 -22.6560 -22.6479 -22.6462 -22.6430 -22.6367 -22.6342 -22.6311
   -22.6293 -22.6290 -22.6259 -22.6248 -22.6215 -22.6175 -22.5984 -22.5959
   -22.5910 -22.5881 -22.5819 -22.5422 -22.4802 -22.4055 -22.4028 -22.3876
   -22.3651 -22.3566 -22.3231 -22.3152 -22.3035 -22.2798 -22.2743 -22.1853
   -14.6733 -14.6121 -14.3845 -14.3844 -14.2861 -14.2237 -14.2107 -14.1474
   -14.1272 -14.1162 -14.0891 -14.0854 -14.0510 -14.0477 -14.0374 -14.0105
   -13.9834 -13.9688 -13.9663 -13.9496 -13.9323 -13.9192 -13.9079 -13.9061
   -13.8856 -13.8722 -13.8640 -13.8197 -13.8133 -13.7961 -13.7955 -13.7711
   -13.7603 -13.7485 -13.7318 -13.7216 -13.7005 -13.6898 -13.6806 -13.6729
   -13.6647 -13.6545 -13.6424 -13.6291 -13.6241 -13.6103 -13.6031 -13.5956
   -13.5908 -13.5754 -13.5631 -13.5526 -13.5319 -13.5317 -13.5175 -13.5141
   -13.5055 -13.4931 -13.4837 -13.4694 -13.4621 -13.4545 -13.4457 -13.4343
   -13.4274 -13.4096 -13.4033 -13.3919 -13.3767 -13.3656 -13.3544 -13.3523
   -13.3303 -13.3285 -13.2896 -13.2815 -13.2788 -13.2678 -13.2626 -13.2505
   -13.2402 -13.2335 -13.2178 -13.2153 -13.2068 -13.2008 -13.1834 -13.1641
   -13.1564 -13.1531 -13.1467 -13.1327 -13.1279 -13.1096 -13.1030 -13.0940
   -13.0842 -13.0828 -13.0731 -13.0639 -13.0555 -13.0400 -13.0272 -13.0169
   -13.0152 -13.0025 -12.9892 -12.9720 -12.9635 -12.9514 -12.9430 -12.9319
   -12.9204 -12.9093 -12.8938 -12.8873 -12.8545 -12.8428 -12.8358 -12.8226
   -12.8111 -12.7901 -12.7796 -12.7765 -12.7584 -12.7513 -12.7337 -12.7260
   -12.7106 -12.6951 -12.6839 -12.6760 -12.6733 -12.6642 -12.6401 -12.6253
   -12.6243 -12.6079 -12.5478 -12.5232 -12.4924 -12.4530 -11.9324 -11.6636
   -11.2706 -11.1420 -11.1262 -11.0352 -11.0210 -10.9722 -10.9676 -10.9481
   -10.9167 -10.8969 -10.8951 -10.8790 -10.8423 -10.8399 -10.8329 -10.8302
   -10.8180 -10.8026 -10.7922 -10.7905 -10.7828 -10.7750 -10.7706 -10.7642
   -10.7573 -10.7539 -10.7481 -10.7378 -10.7242 -10.7139 -10.7047 -10.6895
   -10.6874 -10.6768 -10.6656 -10.6568 -10.6487 -10.6403 -10.6348 -10.6198
   -10.6124 -10.5914 -10.5818 -10.5766 -10.5618 -10.5575 -10.5419 -10.5259
   -10.5151 -10.5075 -10.5035 -10.4846 -10.4779 -10.4644 -10.4499 -10.4371
   -10.4300 -10.4242 -10.3953 -10.3821 -10.3732 -10.3601 -10.3580 -10.3479
   -10.3462 -10.3425 -10.3270 -10.3066 -10.2998 -10.2856 -10.2577 -10.2518
   -10.2474 -10.2210 -10.2146 -10.2044 -10.1965 -10.1808 -10.1523 -10.1439
   -10.1340 -10.1263 -10.1110 -10.0966 -10.0738 -10.0640 -10.0549 -10.0476
   -10.0381 -10.0319 -10.0127  -9.9997  -9.9953  -9.9707  -9.9632  -9.9558
    -9.9285  -9.9230  -9.9038  -9.8980  -9.8815  -9.8558  -9.8162  -9.7955
    -9.7826  -9.7207  -9.5802  -9.5341  -0.9608  -0.8775  -0.8162  -0.7535
    -0.7399  -0.6949  -0.6911  -0.6685  -0.6506  -0.6450  -0.6280  -0.6242
    -0.5987  -0.5859  -0.5832  -0.5604  -0.5512  -0.5491  -0.5372  -0.5254
    -0.4974  -0.4895  -0.4729  -0.4577  -0.4420  -0.4332  -0.4277  -0.4020
    -0.3906  -0.3774  -0.3491  -0.3423  -0.3216  -0.3190  -0.3012  -0.2933
    -0.2691  -0.2671  -0.2565  -0.2492  -0.2403  -0.2333  -0.2266  -0.2247
    -0.2144  -0.2047  -0.1987  -0.1924  -0.1790  -0.1737  -0.1698  -0.1611
    -0.1521  -0.1449  -0.1245  -0.1226  -0.1116  -0.1068  -0.1044  -0.1000
    -0.0836  -0.0808  -0.0726  -0.0645  -0.0530  -0.0437  -0.0384  -0.0302
    -0.0221  -0.0092  -0.0026  -0.0013   0.0092   0.0175   0.0235   0.0254
     0.0354   0.0413   0.0481   0.0500   0.0580   0.0694   0.0739   0.0754
     0.0842   0.0902   0.1003   0.1042   0.1161   0.1229   0.1231   0.1289
     0.1464   0.1481   0.1546   0.1593   0.1670   0.1691   0.1772   0.1798
     0.1850   0.1944   0.1995   0.2078   0.2131   0.2173   0.2255   0.2320
     0.2346   0.2414   0.2466   0.2556   0.2607   0.2731   0.2768   0.2821
     0.2902   0.2913   0.2950   0.3027   0.3139   0.3230   0.3262   0.3365
     0.3489   0.3508   0.3558   0.3620   0.3695   0.3777   0.3796   0.3870
     0.3899   0.4032   0.4050   0.4112   0.4176   0.4233   0.4333   0.4380
     0.4480   0.4546   0.4612   0.4671   0.4779   0.4814   0.4849   0.4939
     0.4986   0.5130   0.5165   0.5236   0.5263   0.5377   0.5421   0.5504
     0.5589   0.5646   0.5700   0.5809   0.5927   0.5983   0.6037   0.6172
     0.6202   0.6235   0.6287   0.6319   0.6426   0.6535   0.6629   0.6728
     0.6856   0.7029   0.7047   0.7197   0.7299   0.7329   0.7424   0.7502
     0.7640   0.7783   0.7873   0.7947   0.8081   0.8137   0.8257   0.8273
     0.8318   0.8393   0.8535   0.8629   0.8677   0.8768   0.8818   0.8982
     0.9043   0.9179   0.9220   0.9276   0.9335   0.9376   0.9522   0.9676
     0.9715   0.9757   0.9841   0.9940   0.9988   1.0036   1.0131   1.0184
     1.0281   1.0477   1.0514   1.0591   1.0646   1.0762   1.0873   1.0996
     1.1111   1.1161   1.1276   1.1324   1.1405   1.1492   1.1622   1.1750
     1.1794   1.1868   1.2013   1.2062   1.2113   1.2204   1.2214   1.2304
     1.2361   1.2466   1.2555   1.2601   1.2743   1.2815   1.2874   1.2925
     1.3015   1.3033   1.3097   1.3266   1.3349   1.3473   1.3486   1.3635
     1.3676   1.3743   1.3871   1.3934   1.3974   1.4041   1.4117   1.4172
     1.4293   1.4345   1.4390   1.4404   1.4502   1.4575   1.4709   1.4895
     1.4919   1.4984   1.5087   1.5126   1.5209   1.5301   1.5383   1.5473
     1.5488   1.5552   1.5569   1.5711   1.5817   1.5849   1.5912   1.5983
     1.6042   1.6116   1.6253   1.6300   1.6346   1.6378   1.6462   1.6537
     1.6618   1.6636   1.6707   1.6822   1.6853   1.6909   1.6963   1.7069
     1.7103   1.7177   1.7303   1.7318   1.7410   1.7463   1.7531   1.7560
     1.7625   1.7730   1.7753   1.7814   1.7877   1.7938   1.7968   1.8020
     1.8100   1.8162   1.8300   1.8370   1.8437   1.8478   1.8484   1.8541
     1.8603   1.8622   1.8705   1.8771   1.8835   1.8995   1.9028   1.9075
     1.9123   1.9134   1.9191   1.9253   1.9317   1.9385   1.9411   1.9483
     1.9569   1.9628   1.9677   1.9715   1.9747   1.9859   1.9929   1.9944
     1.9954   2.0021   2.0070   2.0141   2.0207   2.0323   2.0387   2.0418
     2.0470   2.0481   2.0537   2.0601   2.0656   2.0717   2.0747   2.0848
     2.0898   2.0951   2.0990   2.1060   2.1094   2.1165   2.1253   2.1326
     2.1429   2.1504   2.1530   2.1553   2.1613   2.1685   2.1794   2.1830
     2.1891   2.1952   2.1966   2.2092   2.2105   2.2214   2.2260   2.2278
     2.2357   2.2397   2.2495   2.2597   2.2703   2.2763   2.2813   2.2827
     2.2853   2.3000   2.3017   2.3034   2.3178   2.3206   2.3304   2.3319
     2.3464   2.3537   2.3646   2.3656   2.3716   2.3743   2.3795   2.3841
     2.3938   2.4013   2.4192   2.4262   2.4304   2.4437   2.4481   2.4685
     2.4787   2.4809   2.5024   2.5255   2.5326   2.5607   2.5766   2.6080
     2.6122   2.6676   2.6950   2.7668   5.4974   5.8245   6.3110   6.4003
     6.4649   6.4968   6.5053   6.5323   6.5467   6.6008   6.6558   6.7042
     6.7593   6.7766   6.7996   6.8026   6.8099   6.8155   6.8347   6.8497
     6.8537   6.8625   6.8693   6.8737   6.8840   6.8942   6.8971   6.8992
     6.9115   6.9177   6.9315   6.9430   6.9467   6.9556   6.9584   6.9597
     6.9665   6.9705   6.9776   6.9811   6.9912   6.9981   7.0063   7.0083
     7.0114   7.0155   7.0260   7.0311   7.0373   7.0426   7.0462   7.0487
     7.0593   7.0605   7.0651   7.0707   7.0777   7.0818   7.0896   7.0975
     7.1010   7.1053   7.1105   7.1145   7.1180   7.1224   7.1311   7.1351
     7.1418   7.1487   7.1506   7.1533   7.1613   7.1666   7.1726   7.1781
     7.1830   7.1847   7.1905   7.1933   7.2053   7.2081   7.2157   7.2195
     7.2214   7.2278   7.2346   7.2380   7.2419   7.2454   7.2495   7.2525
     7.2568   7.2585   7.2644   7.2660   7.2723   7.2750   7.2773   7.2847
     7.2859   7.2908   7.2926   7.2971   7.2987   7.3079   7.3112   7.3127
     7.3205   7.3226   7.3305   7.3341   7.3382   7.3427   7.3475   7.3534
     7.3569   7.3601   7.3622   7.3634   7.3667   7.3722   7.3738   7.3772
     7.3822   7.3849   7.3864   7.3883   7.3930   7.3983   7.3988   7.4009
     7.4061   7.4148   7.4154   7.4212   7.4262   7.4287   7.4315   7.4331
     7.4341   7.4401   7.4452   7.4488   7.4520   7.4552   7.4587   7.4644
     7.4688   7.4703   7.4759   7.4789   7.4843   7.4908   7.4940   7.4956
     7.5008   7.5039   7.5061   7.5097   7.5108   7.5124   7.5177   7.5199
     7.5254   7.5263   7.5285   7.5336   7.5359   7.5403   7.5412   7.5444
     7.5495   7.5520   7.5549   7.5570   7.5609   7.5653   7.5675   7.5754

     the Fermi energy is     4.3081 ev

!    total energy              =  -10980.25924899 Ry
     estimated scf accuracy    <          3.0E-10 Ry
     smearing contrib. (-TS)   =       0.00000000 Ry
     internal energy E=F+TS    =  -10980.25924899 Ry

     The total energy is F=E-TS. E is the sum of the following terms:
     one-electron contribution = -262689.16507540 Ry
     hartree contribution      =  131920.20769918 Ry
     xc contribution           =   -2580.51588518 Ry
     ewald contribution        =  122369.21816276 Ry
     electric field correction =      -0.00415035 Ry

     convergence has been achieved in  26 iterations

     Forces acting on atoms (cartesian axes, Ry/au):

     atom    1 type  1   force =    -0.00091421   -0.00037852   -0.00108893
     atom    2 type  1   force =     0.00012215   -0.00089042   -0.00126010
     atom    3 type  1   force =     0.00101945   -0.00021298   -0.00122845
     atom    4 type  1   force =     0.00044205    0.00056568   -0.00070839
     atom    5 type  1   force =    -0.00051032    0.00023549   -0.00078109
     atom    6 type  1   force =    -0.00056969   -0.00025531   -0.00044852
     atom    7 type  1   force =     0.00049601    0.00004097   -0.00044575
     atom    8 type  1   force =    -0.00055499   -0.00016456   -0.00000992
     atom    9 type  1   force =     0.00032340    0.00022274   -0.00036093
     atom   10 type  1   force =    -0.00026618    0.00000486   -0.00028844
     atom   11 type  1   force =     0.00031947    0.00011837   -0.00107334
     atom   12 type  1   force =     0.00007176   -0.00063789   -0.00059540
     atom   13 type  1   force =    -0.00020366    0.00021095   -0.00044631
     atom   14 type  1   force =    -0.00043880    0.00035732   -0.00018591
     atom   15 type  1   force =     0.00049494   -0.00035152   -0.00050154
     atom   16 type  1   force =     0.00034802    0.00046503   -0.00023525
     atom   17 type  1   force =    -0.00081245   -0.00013128   -0.00015336
     atom   18 type  1   force =     0.00007388   -0.00009756   -0.00047984
     atom   19 type  1   force =     0.00014922   -0.00048434   -0.00087321
     atom   20 type  1   force =     0.00011760    0.00058943   -0.00070701
     atom   21 type  1   force =     0.00012956   -0.00060118   -0.00064168
     atom   22 type  1   force =     0.00008688    0.00050909    0.00005422
     atom   23 type  1   force =    -0.00030148   -0.00044066   -0.00013741
     atom   24 type  1   force =    -0.00021943    0.00024590    0.00012679
     atom   25 type  1   force =    -0.00004586   -0.00007324   -0.00054124
     atom   26 type  1   force =     0.00062832    0.00027153   -0.00087513
     atom   27 type  1   force =    -0.00056290    0.00042252   -0.00019119
     atom   28 type  1   force =    -0.00055736   -0.00032612   -0.00057233
     atom   29 type  1   force =    -0.00018339   -0.00067292   -0.00022996
     atom   30 type  1   force =     0.00036495   -0.00042218   -0.00068382
     atom   31 type  1   force =     0.00011569    0.00070257    0.00008277
     atom   32 type  1   force =    -0.00015333   -0.00001699   -0.00033725
     atom   33 type  1   force =     0.00031154   -0.00009073   -0.00107136
     atom   34 type  1   force =    -0.00040852   -0.00057137   -0.00059961
     atom   35 type  1   force =     0.00047605    0.00024033   -0.00083439
     atom   36 type  1   force =    -0.00061970   -0.00010905   -0.00012146
     atom   37 type  1   force =     0.00037264    0.00038774   -0.00015666
     atom   38 type  1   force =    -0.00039224    0.00007555    0.00021634
     atom   39 type  1   force =     0.00006975    0.00008782   -0.00041135
     atom   40 type  1   force =     0.00010916   -0.00080680   -0.00074171
     atom   41 type  1   force =     0.00014313    0.00074548   -0.00048317
     atom   42 type  1   force =    -0.00049022    0.00044616   -0.00011501
     atom   43 type  1   force =     0.00060193   -0.00026180   -0.00069606
     atom   44 type  1   force =     0.00054852    0.00044721   -0.00031279
     atom   45 type  1   force =    -0.00084838   -0.00016655   -0.00015627
     atom   46 type  1   force =    -0.00007352    0.00007836   -0.00028800
     atom   47 type  1   force =     0.00016972   -0.00047266   -0.00107315
     atom   48 type  1   force =     0.00022483    0.00052260   -0.00052988
     atom   49 type  1   force =     0.00010682   -0.00071601   -0.00055198
     atom   50 type  1   force =     0.00011438    0.00051743    0.00009908
     atom   51 type  1   force =    -0.00045117   -0.00053045   -0.00007280
     atom   52 type  1   force =    -0.00025864    0.00030283    0.00012950
     atom   53 type  1   force =    -0.00008509   -0.00011268   -0.00050182
     atom   54 type  1   force =     0.00060193    0.00039491   -0.00123285
     atom   55 type  1   force =    -0.00047174    0.00036446   -0.00012035
     atom   56 type  1   force =    -0.00047350   -0.00032915   -0.00062675
     atom   57 type  1   force =    -0.00023407   -0.00057019   -0.00023268
     atom   58 type  1   force =     0.00050299   -0.00043826   -0.00072322
     atom   59 type  1   force =     0.00012880    0.00064373   -0.00000055
     atom   60 type  1   force =    -0.00013393    0.00004630   -0.00037913
     atom   61 type  1   force =     0.00028418   -0.00001440   -0.00085146
     atom   62 type  1   force =    -0.00046031   -0.00060488   -0.00074353
     atom   63 type  1   force =     0.00062331    0.00027434   -0.00080920
     atom   64 type  1   force =    -0.00056584   -0.00025234   -0.00026480
     atom   65 type  1   force =     0.00018087    0.00056718   -0.00015009
     atom   66 type  1   force =    -0.00057056    0.00009587    0.00027303
     atom   67 type  1   force =     0.00011034   -0.00016299   -0.00028748
     atom   68 type  1   force =     0.00030414   -0.00084821   -0.00065383
     atom   69 type  1   force =     0.00008040    0.00056177   -0.00048521
     atom   70 type  1   force =    -0.00053430    0.00034112   -0.00003985
     atom   71 type  1   force =    -0.00010575    0.00017770   -0.00030527
     atom   72 type  1   force =     0.00085103    0.00053495   -0.00017872
     atom   73 type  1   force =    -0.00076420   -0.00054305    0.00015376
     atom   74 type  1   force =    -0.00003916   -0.00003207   -0.00037241
     atom   75 type  1   force =     0.00045291   -0.00042163   -0.00108929
     atom   76 type  1   force =    -0.00013065   -0.00001727   -0.00043820
     atom   77 type  1   force =     0.00056781   -0.00040554   -0.00084039
     atom   78 type  1   force =    -0.00083451    0.00082821   -0.00047650
     atom   79 type  1   force =     0.00043443   -0.00045477   -0.00035704
     atom   80 type  1   force =     0.00064112   -0.00036036    0.00030539
     atom   81 type  1   force =     0.00006436    0.00026678   -0.00020850
     atom   82 type  1   force =     0.00038065    0.00080440    0.00007308
     atom   83 type  1   force =    -0.00012685   -0.00046977    0.00009007
     atom   84 type  1   force =    -0.00083697   -0.00109443   -0.00001340
     atom   85 type  2   force =     0.00148252    0.00180306   -0.00866501
     atom   86 type  2   force =     0.00214055   -0.00243049   -0.00269664
     atom   87 type  2   force =    -0.00270749    0.00172511   -0.00554146
     atom   88 type  2   force =    -0.00011578   -0.00144439   -0.00024823
     atom   89 type  2   force =     0.00061652    0.00182095    0.00062825
     atom   90 type  2   force =    -0.00090696    0.00007705   -0.00224111
     atom   91 type  2   force =     0.00035401   -0.00109430   -0.00217964
     atom   92 type  2   force =     0.00010376   -0.00062327    0.00019169
     atom   93 type  2   force =    -0.00023477    0.00019425   -0.00104546
     atom   94 type  2   force =    -0.00058124    0.00024387   -0.00024660
     atom   95 type  2   force =     0.00004777    0.00030349   -0.00152617
     atom   96 type  2   force =     0.00067721    0.00070456   -0.00146941
     atom   97 type  2   force =     0.00031866    0.00043559   -0.00150580
     atom   98 type  2   force =    -0.00006191   -0.00003052   -0.00133970
     atom   99 type  2   force =     0.00031122   -0.00019802   -0.00195015
     atom  100 type  2   force =    -0.00015551    0.00031036   -0.00077669
     atom  101 type  2   force =    -0.00019033    0.00006761   -0.00145528
     atom  102 type  2   force =    -0.00039312   -0.00032849   -0.00154804
     atom  103 type  2   force =    -0.00077014   -0.00086114   -0.00132659
     atom  104 type  2   force =     0.00034167   -0.00014184   -0.00119484
     atom  105 type  2   force =     0.00014147   -0.00013224   -0.00208123
     atom  106 type  2   force =    -0.00069729    0.00016988   -0.00037044
     atom  107 type  2   force =    -0.00002761   -0.00001805   -0.00100884
     atom  108 type  2   force =     0.00035916    0.00070655   -0.00176287
     atom  109 type  2   force =     0.00035106    0.00040329   -0.00098433
     atom  110 type  2   force =     0.00026623   -0.00016192   -0.00077654
     atom  111 type  2   force =     0.00017327    0.00000696   -0.00233316
     atom  112 type  2   force =    -0.00002158    0.00027202   -0.00220068
     atom  113 type  2   force =     0.00058191   -0.00008391   -0.00193610
     atom  114 type  2   force =     0.00044611   -0.00103552    0.00025098
     atom  115 type  2   force =    -0.00113270   -0.00017172   -0.00070582
     atom  116 type  2   force =    -0.00028224   -0.00077579   -0.00075900
     atom  117 type  2   force =    -0.00017801   -0.00027492   -0.00030826
     atom  118 type  2   force =    -0.00051681   -0.00342468    0.00260270
     atom  119 type  2   force =    -0.00175927    0.00136576    0.00087897
     atom  120 type  2   force =    -0.00051220    0.00043873    0.00543655
     atom  121 type  3   force =     0.01053692   -0.00050270   -0.00919170
     atom  122 type  3   force =    -0.00487119    0.00433093   -0.00993942
     atom  123 type  3   force =     0.00815736   -0.00093579   -0.00386644
     atom  124 type  3   force =    -0.00880574   -0.00319152   -0.00391321
     atom  125 type  3   force =    -0.00039076    0.00092782   -0.00256809
     atom  126 type  3   force =     0.00073893   -0.00207225   -0.00209165
     atom  127 type  3   force =     0.00035422    0.00052802   -0.00124920
     atom  128 type  3   force =    -0.00127728    0.00271285   -0.00145235
     atom  129 type  3   force =    -0.00029343   -0.00086230   -0.00179857
     atom  130 type  3   force =    -0.00016424    0.00072323   -0.00125789
     atom  131 type  3   force =    -0.00115455   -0.00065518   -0.00160825
     atom  132 type  3   force =    -0.00009644    0.00044568   -0.00105609
     atom  133 type  3   force =     0.00001023   -0.00057705   -0.00248388
     atom  134 type  3   force =     0.00060209   -0.00039860   -0.00229109
     atom  135 type  3   force =     0.00068201   -0.00036619   -0.00142902
     atom  136 type  3   force =    -0.00063875   -0.00030146   -0.00100223
     atom  137 type  3   force =     0.00213114   -0.00033083   -0.00036282
     atom  138 type  3   force =     0.00021877    0.00001478   -0.00088230
     atom  139 type  3   force =    -0.00109451   -0.00032418   -0.00287226
     atom  140 type  3   force =     0.00029188    0.00101458   -0.00184314
     atom  141 type  3   force =    -0.00730070    0.00875634    0.01383968
     atom  142 type  3   force =     0.00401196   -0.00148234    0.01498005
     atom  143 type  3   force =     0.00193566    0.00758102    0.00243601
     atom  144 type  3   force =    -0.00215494   -0.00466404    0.00207905
     atom  145 type  4   force =     0.00363057   -0.00286767    0.00689238
     atom  146 type  4   force =    -0.00521824    0.00079484    0.00465940
     atom  147 type  4   force =     0.00809188   -0.00130902    0.00621286
     atom  148 type  4   force =    -0.00832025    0.00438966    0.00818619
     atom  149 type  4   force =     0.00299955   -0.00560830    0.00375067
     atom  150 type  4   force =    -0.00313890    0.01007039    0.00586135
     atom  151 type  4   force =    -0.01137539    0.01107224    0.00508315
     atom  152 type  4   force =     0.00873938   -0.01067689    0.00327388
     atom  153 type  4   force =    -0.00952205   -0.01282233    0.00196703
     atom  154 type  4   force =     0.00470210    0.00560285    0.00132962
     atom  155 type  4   force =     0.00334030   -0.00073796    0.00494489
     atom  156 type  4   force =    -0.00281917    0.00043383    0.00422507
     atom  157 type  4   force =     0.00915609    0.00664448    0.00369612
     atom  158 type  4   force =    -0.00891969   -0.00466592   -0.00146655
     atom  159 type  4   force =    -0.00412268   -0.00262700    0.00048136
     atom  160 type  4   force =     0.00405003    0.00204464   -0.00038094
     atom  161 type  4   force =     0.00334199   -0.00043079    0.00336311
     atom  162 type  4   force =    -0.00291408    0.00027969    0.00141422
     atom  163 type  4   force =     0.00125564   -0.00242094   -0.00358917
     atom  164 type  4   force =    -0.00060816    0.00202302   -0.00247575
     atom  165 type  4   force =     0.00414314   -0.00009018   -0.00169129
     atom  166 type  4   force =    -0.00320273    0.00098277   -0.00204266
     atom  167 type  4   force =     0.00247542   -0.00094221   -0.00442476
     atom  168 type  4   force =    -0.00086866    0.00099727   -0.00425983
     atom  169 type  4   force =     0.00278433   -0.00115780    0.00707627
     atom  170 type  4   force =    -0.00290106    0.00222275    0.00834575
     atom  171 type  4   force =     0.00162877   -0.00495956    0.00681030
     atom  172 type  4   force =    -0.00173245    0.00546931    0.00546442
     atom  173 type  4   force =     0.00605921   -0.00033951    0.00474585
     atom  174 type  4   force =    -0.00689466    0.00082878    0.00561204
     atom  175 type  4   force =     0.00540819   -0.00345389    0.00332577
     atom  176 type  4   force =    -0.00507718    0.00372569    0.00222342
     atom  177 type  4   force =     0.00188068    0.00564706    0.00291727
     atom  178 type  4   force =    -0.00258637   -0.00762708    0.00288137
     atom  179 type  4   force =    -0.00148884   -0.00486504    0.00243455
     atom  180 type  4   force =     0.00146765    0.00610482    0.00303024
     atom  181 type  4   force =    -0.00257504   -0.00729916   -0.00079112
     atom  182 type  4   force =     0.00325558    0.00717961   -0.00167950
     atom  183 type  4   force =     0.00235239    0.00575448   -0.00195149
     atom  184 type  4   force =    -0.00255797   -0.00639507   -0.00147115
     atom  185 type  4   force =    -0.00538999    0.00327766   -0.00179329
     atom  186 type  4   force =     0.00672894   -0.00487413   -0.00237315
     atom  187 type  4   force =     0.00477263   -0.00060511   -0.00321217
     atom  188 type  4   force =    -0.00512067    0.00023459   -0.00325699
     atom  189 type  4   force =     0.00207034   -0.00459051   -0.00356862
     atom  190 type  4   force =    -0.00111713    0.00429053   -0.00381696
     atom  191 type  4   force =     0.00258406   -0.00137352   -0.00537326
     atom  192 type  4   force =    -0.00222968    0.00073113   -0.00501753
     atom  193 type  4   force =     0.00141077   -0.00183606    0.00676261
     atom  194 type  4   force =    -0.00200990    0.00200169    0.00722534
     atom  195 type  4   force =     0.00521556   -0.00005974    0.00596314
     atom  196 type  4   force =    -0.00546148    0.00032701    0.00537790
     atom  197 type  4   force =     0.00220204   -0.00496674    0.00478988
     atom  198 type  4   force =    -0.00241250    0.00518770    0.00524306
     atom  199 type  4   force =    -0.00646069    0.00409058    0.00360053
     atom  200 type  4   force =     0.00502775   -0.00427710    0.00330481
     atom  201 type  4   force =    -0.00529825   -0.00427066    0.00266549
     atom  202 type  4   force =     0.00513897    0.00420670    0.00287033
     atom  203 type  4   force =     0.00629954    0.00503652    0.00298808
     atom  204 type  4   force =    -0.00597587   -0.00448791    0.00249017
     atom  205 type  4   force =     0.00567323    0.00409622   -0.00079004
     atom  206 type  4   force =    -0.00519594   -0.00393397   -0.00086280
     atom  207 type  4   force =    -0.00554550   -0.00470506   -0.00127985
     atom  208 type  4   force =     0.00557476    0.00501977   -0.00120809
     atom  209 type  4   force =     0.00534463   -0.00368937   -0.00138234
     atom  210 type  4   force =    -0.00475320    0.00373067   -0.00159813
     atom  211 type  4   force =     0.00246744   -0.00532984   -0.00388015
     atom  212 type  4   force =    -0.00191088    0.00471014   -0.00275499
     atom  213 type  4   force =     0.00548209   -0.00075110   -0.00434051
     atom  214 type  4   force =    -0.00452702    0.00007092   -0.00374949
     atom  215 type  4   force =     0.00245820   -0.00213779   -0.00630828
     atom  216 type  4   force =    -0.00143418    0.00196652   -0.00526728
     atom  217 type  4   force =     0.00263712   -0.00065789    0.00724420
     atom  218 type  4   force =    -0.00280117    0.00192590    0.00834288
     atom  219 type  4   force =     0.00146427   -0.00444307    0.00529386
     atom  220 type  4   force =    -0.00251395    0.00529695    0.00583553
     atom  221 type  4   force =     0.00538261   -0.00025717    0.00459951
     atom  222 type  4   force =    -0.00621300    0.00097929    0.00570948
     atom  223 type  4   force =     0.00512804   -0.00349074    0.00299507
     atom  224 type  4   force =    -0.00543100    0.00400735    0.00279994
     atom  225 type  4   force =     0.00287132    0.00690856    0.00267073
     atom  226 type  4   force =    -0.00240854   -0.00689852    0.00283459
     atom  227 type  4   force =    -0.00232516   -0.00659278    0.00262886
     atom  228 type  4   force =     0.00236652    0.00694461    0.00236406
     atom  229 type  4   force =    -0.00228960   -0.00659672   -0.00099175
     atom  230 type  4   force =     0.00271888    0.00702316   -0.00139436
     atom  231 type  4   force =     0.00243236    0.00610652   -0.00123335
     atom  232 type  4   force =    -0.00255688   -0.00627840   -0.00116334
     atom  233 type  4   force =    -0.00578447    0.00333041   -0.00175286
     atom  234 type  4   force =     0.00605778   -0.00429547   -0.00185713
     atom  235 type  4   force =     0.00526093   -0.00045868   -0.00341641
     atom  236 type  4   force =    -0.00518312    0.00042340   -0.00294822
     atom  237 type  4   force =     0.00223565   -0.00480727   -0.00368352
     atom  238 type  4   force =    -0.00169455    0.00446678   -0.00403600
     atom  239 type  4   force =     0.00246927   -0.00129134   -0.00528028
     atom  240 type  4   force =    -0.00221815    0.00082614   -0.00488429
     atom  241 type  4   force =     0.00186937   -0.00219700    0.00751923
     atom  242 type  4   force =    -0.00250628    0.00247196    0.00796917
     atom  243 type  4   force =     0.00461300    0.00026389    0.00489736
     atom  244 type  4   force =    -0.00528279    0.00078325    0.00528626
     atom  245 type  4   force =     0.00217873   -0.00556950    0.00491833
     atom  246 type  4   force =    -0.00234210    0.00530409    0.00514571
     atom  247 type  4   force =    -0.00606682    0.00463059    0.00411299
     atom  248 type  4   force =     0.00467325   -0.00410640    0.00320977
     atom  249 type  4   force =    -0.00509444   -0.00442922    0.00279930
     atom  250 type  4   force =     0.00507319    0.00431699    0.00345605
     atom  251 type  4   force =     0.00612492    0.00503207    0.00277674
     atom  252 type  4   force =    -0.00638568   -0.00502284    0.00205992
     atom  253 type  4   force =     0.00608776    0.00376713   -0.00117085
     atom  254 type  4   force =    -0.00527003   -0.00377046   -0.00100294
     atom  255 type  4   force =    -0.00598884   -0.00481640   -0.00135994
     atom  256 type  4   force =     0.00502097    0.00370640   -0.00201681
     atom  257 type  4   force =     0.00575450   -0.00358257   -0.00134308
     atom  258 type  4   force =    -0.00507382    0.00397615   -0.00224771
     atom  259 type  4   force =     0.00259007   -0.00476368   -0.00392019
     atom  260 type  4   force =    -0.00173971    0.00422934   -0.00321651
     atom  261 type  4   force =     0.00544746   -0.00040084   -0.00403046
     atom  262 type  4   force =    -0.00520238    0.00008587   -0.00499050
     atom  263 type  4   force =     0.00238379   -0.00173331   -0.00676217
     atom  264 type  4   force =    -0.00125933    0.00149180   -0.00462226
     atom  265 type  4   force =    -0.00037030   -0.00082318    0.00336213
     atom  266 type  4   force =     0.00030479    0.00109183    0.00309229
     atom  267 type  4   force =     0.00146228   -0.00327223    0.00406311
     atom  268 type  4   force =    -0.00171241    0.00426154    0.00395654
     atom  269 type  4   force =     0.00209509    0.00072600    0.00364572
     atom  270 type  4   force =    -0.00331219    0.00007959    0.00459063
     atom  271 type  4   force =     0.00317662   -0.00319307    0.00134166
     atom  272 type  4   force =    -0.00553093    0.00392185    0.00123373
     atom  273 type  4   force =     0.00276631    0.00850441    0.00405107
     atom  274 type  4   force =    -0.00395810   -0.00923737    0.00272262
     atom  275 type  4   force =    -0.00079030   -0.00307436    0.00215383
     atom  276 type  4   force =     0.00266862    0.00447150    0.00081779
     atom  277 type  4   force =    -0.00540571   -0.00804205    0.00071056
     atom  278 type  4   force =     0.00431022    0.00716340   -0.00091918
     atom  279 type  4   force =    -0.00232109    0.00251448   -0.00050220
     atom  280 type  4   force =     0.00032550   -0.00695455   -0.00369920
     atom  281 type  4   force =    -0.00410888    0.00563325   -0.00298914
     atom  282 type  4   force =     0.00642889   -0.00618827   -0.00449875
     atom  283 type  4   force =     0.00855175    0.00129202   -0.00335941
     atom  284 type  4   force =    -0.00635774    0.00146174   -0.00268004
     atom  285 type  4   force =     0.00741762   -0.00584532   -0.00730596
     atom  286 type  4   force =    -0.00288592    0.00757014   -0.00616880
     atom  287 type  4   force =     0.01388919   -0.00593904   -0.01436557
     atom  288 type  4   force =    -0.01083479   -0.00191161   -0.01573420
     The non-local contrib.  to forces
     atom    1 type  1   force =    -0.05734022   -0.02018758   -0.08466434
     atom    2 type  1   force =    -0.01958968   -0.03318726   -0.09831579
     atom    3 type  1   force =     0.05722160   -0.02863098   -0.07520087
     atom    4 type  1   force =     0.01014207    0.02153783   -0.09859810
     atom    5 type  1   force =    -0.04055539   -0.00073350   -0.06794391
     atom    6 type  1   force =    -0.09177165   -0.00334000   -0.01258072
     atom    7 type  1   force =     0.06307203    0.00025835   -0.02061504
     atom    8 type  1   force =    -0.02155593   -0.01508541    0.05347416
     atom    9 type  1   force =     0.02808850    0.04304364    0.01067227
     atom   10 type  1   force =     0.00009846    0.06463104    0.00163936
[...]
     atom   55 type  1   force =    -0.00000035   -0.00000011    0.00000096
     atom   56 type  1   force =     0.00000034    0.00000001    0.00000125
     atom   57 type  1   force =     0.00000065    0.00000004    0.00000075
     atom   58 type  1   force =     0.00000006    0.00000009    0.00000110
     atom   59 type  1   force =    -0.00000010    0.00000014    0.00000094
     atom   60 type  1   force =    -0.00000012   -0.00000018    0.00000076
     atom   61 type  1   force =     0.00000020    0.00000046    0.00000108
     atom   62 type  1   force =     0.00000019   -0.00000016    0.00000036
     atom   63 type  1   force =     0.00000019    0.00000007    0.00000035
     atom   64 type  1   force =    -0.00000033   -0.00000019    0.00000071
     atom   65 type  1   force =    -0.00000036    0.00000043   -0.00000029
     atom   66 type  1   force =    -0.00000030   -0.00000027    0.00000056
     atom   67 type  1   force =    -0.00000016   -0.00000046    0.00000081
     atom   68 type  1   force =    -0.00000085    0.00000002    0.00000056
     atom   69 type  1   force =    -0.00000033    0.00000001    0.00000124
     atom   70 type  1   force =     0.00000003    0.00000034    0.00000084
     atom   71 type  1   force =    -0.00000008   -0.00000066    0.00000055
     atom   72 type  1   force =    -0.00000022   -0.00000066    0.00000104
     atom   73 type  1   force =    -0.00000059   -0.00000082    0.00000023
     atom   74 type  1   force =     0.00000074   -0.00000042    0.00000118
     atom   75 type  1   force =     0.00000100   -0.00000073    0.00000065
     atom   76 type  1   force =    -0.00000121    0.00000067    0.00000039
     atom   77 type  1   force =    -0.00000028    0.00000048    0.00000051
     atom   78 type  1   force =    -0.00000099    0.00000041   -0.00000103
     atom   79 type  1   force =    -0.00000115    0.00000159    0.00000249
     atom   80 type  1   force =     0.00000049    0.00000081    0.00000055
     atom   81 type  1   force =     0.00000008    0.00000025    0.00000069
     atom   82 type  1   force =     0.00000029   -0.00000238    0.00000186
     atom   83 type  1   force =     0.00000004   -0.00000049   -0.00000015
     atom   84 type  1   force =    -0.00000065   -0.00000226    0.00000035
     atom   85 type  2   force =    -0.00000016    0.00000022    0.00000232
     atom   86 type  2   force =    -0.00000106   -0.00000099    0.00000439
     atom   87 type  2   force =     0.00000023    0.00000106    0.00000466
     atom   88 type  2   force =     0.00000016    0.00000064    0.00000403
     atom   89 type  2   force =    -0.00000073   -0.00000082    0.00000290
     atom   90 type  2   force =     0.00000024    0.00000024    0.00000100
     atom   91 type  2   force =    -0.00000027    0.00000035   -0.00000061
     atom   92 type  2   force =     0.00000100    0.00000087   -0.00000119
     atom   93 type  2   force =    -0.00000098   -0.00000064   -0.00000041
     atom   94 type  2   force =     0.00000065   -0.00000045   -0.00000187
     atom   95 type  2   force =    -0.00000104    0.00000011   -0.00000151
     atom   96 type  2   force =    -0.00000060    0.00000002   -0.00000026
     atom   97 type  2   force =     0.00000053   -0.00000013   -0.00000112
     atom   98 type  2   force =     0.00000040    0.00000057    0.00000043
     atom   99 type  2   force =     0.00000012   -0.00000005    0.00000016
     atom  100 type  2   force =    -0.00000044    0.00000018    0.00000215
     atom  101 type  2   force =    -0.00000015   -0.00000060    0.00000219
     atom  102 type  2   force =     0.00000010    0.00000033    0.00000332
     atom  103 type  2   force =    -0.00000056    0.00000005    0.00000353
     atom  104 type  2   force =    -0.00000045    0.00000021    0.00000354
     atom  105 type  2   force =     0.00000082   -0.00000010    0.00000334
     atom  106 type  2   force =     0.00000081    0.00000018    0.00000365
     atom  107 type  2   force =    -0.00000110    0.00000030    0.00000355
     atom  108 type  2   force =     0.00000058   -0.00000016    0.00000348
     atom  109 type  2   force =    -0.00000032   -0.00000073    0.00000333
     atom  110 type  2   force =    -0.00000096   -0.00000029    0.00000188
     atom  111 type  2   force =    -0.00000140    0.00000028    0.00000085
     atom  112 type  2   force =     0.00000196   -0.00000149    0.00000257
     atom  113 type  2   force =     0.00000266    0.00000009   -0.00000018
     atom  114 type  2   force =    -0.00000243   -0.00000076    0.00000299
     atom  115 type  2   force =     0.00000020    0.00000507    0.00000126
     atom  116 type  2   force =    -0.00000126   -0.00000051    0.00000169
     atom  117 type  2   force =     0.00000200    0.00000097    0.00000429
     atom  118 type  2   force =    -0.00000176   -0.00000030    0.00000340
     atom  119 type  2   force =    -0.00000190   -0.00000081   -0.00000045
     atom  120 type  2   force =    -0.00000299   -0.00000133   -0.00000065
     atom  121 type  3   force =     0.00000235    0.00000235    0.00000908
     atom  122 type  3   force =    -0.00000106   -0.00000046    0.00000731
     atom  123 type  3   force =     0.00000202    0.00000076    0.00000632
     atom  124 type  3   force =    -0.00000154   -0.00000086    0.00000554
     atom  125 type  3   force =    -0.00000027    0.00000127   -0.00000226
     atom  126 type  3   force =     0.00000102   -0.00000066   -0.00000184
     atom  127 type  3   force =     0.00000022   -0.00000002   -0.00000159
     atom  128 type  3   force =    -0.00000150   -0.00000043   -0.00000151
     atom  129 type  3   force =     0.00000014    0.00000040    0.00000108
     atom  130 type  3   force =     0.00000070    0.00000000    0.00000105
     atom  131 type  3   force =    -0.00000054   -0.00000001    0.00000130
     atom  132 type  3   force =     0.00000120   -0.00000047    0.00000162
     atom  133 type  3   force =    -0.00000025   -0.00000036    0.00000582
     atom  134 type  3   force =    -0.00000018   -0.00000070    0.00000500
     atom  135 type  3   force =     0.00000133   -0.00000034    0.00000264
     atom  136 type  3   force =    -0.00000039   -0.00000059    0.00000308
     atom  137 type  3   force =     0.00000073   -0.00000044   -0.00000039
     atom  138 type  3   force =     0.00000037   -0.00000008    0.00000106
     atom  139 type  3   force =    -0.00000012    0.00000031    0.00000167
     atom  140 type  3   force =     0.00000071    0.00000033    0.00000186
     atom  141 type  3   force =     0.00000949   -0.00000310   -0.00000601
     atom  142 type  3   force =     0.00000914    0.00000318    0.00001564
     atom  143 type  3   force =    -0.00000268   -0.00000264    0.00000091
     atom  144 type  3   force =    -0.00000391    0.00000107    0.00000135
     atom  145 type  4   force =     0.00000002   -0.00000087    0.00000204
     atom  146 type  4   force =    -0.00000028    0.00000092    0.00000222
     atom  147 type  4   force =     0.00000137    0.00000054    0.00000290
     atom  148 type  4   force =    -0.00000127    0.00000014    0.00000220
     atom  149 type  4   force =    -0.00000041   -0.00000147    0.00000262
     atom  150 type  4   force =     0.00000055    0.00000096    0.00000294
     atom  151 type  4   force =     0.00000032    0.00000113    0.00000308
     atom  152 type  4   force =    -0.00000023   -0.00000102    0.00000270
     atom  153 type  4   force =     0.00000018   -0.00000033    0.00000288
     atom  154 type  4   force =     0.00000007    0.00000047    0.00000296
     atom  155 type  4   force =    -0.00000003    0.00000093    0.00000194
     atom  156 type  4   force =     0.00000010   -0.00000121    0.00000207
     atom  157 type  4   force =    -0.00000003    0.00000045    0.00000266
     atom  158 type  4   force =     0.00000003   -0.00000045    0.00000237
     atom  159 type  4   force =    -0.00000079   -0.00000024    0.00000252
     atom  160 type  4   force =     0.00000074    0.00000030    0.00000285
     atom  161 type  4   force =     0.00000128    0.00000016    0.00000222
     atom  162 type  4   force =    -0.00000109   -0.00000020    0.00000232
     atom  163 type  4   force =     0.00000096    0.00000017    0.00000111
     atom  164 type  4   force =    -0.00000080    0.00000008    0.00000121
     atom  165 type  4   force =    -0.00000043   -0.00000047    0.00000109
     atom  166 type  4   force =     0.00000029    0.00000019    0.00000087
     atom  167 type  4   force =    -0.00000051   -0.00000040    0.00000036
     atom  168 type  4   force =     0.00000100    0.00000033   -0.00000044
     atom  169 type  4   force =    -0.00000019   -0.00000022   -0.00000130
     atom  170 type  4   force =    -0.00000002    0.00000025   -0.00000111
     atom  171 type  4   force =    -0.00000047   -0.00000044   -0.00000069
     atom  172 type  4   force =    -0.00000035    0.00000014   -0.00000071
     atom  173 type  4   force =     0.00000001    0.00000106   -0.00000151
     atom  174 type  4   force =     0.00000065   -0.00000049   -0.00000099
     atom  175 type  4   force =    -0.00000073    0.00000001   -0.00000166
     atom  176 type  4   force =     0.00000058   -0.00000061   -0.00000180
     atom  177 type  4   force =    -0.00000078   -0.00000033   -0.00000149
     atom  178 type  4   force =     0.00000084    0.00000067   -0.00000158
     atom  179 type  4   force =     0.00000031    0.00000049   -0.00000112
     atom  180 type  4   force =     0.00000044   -0.00000007   -0.00000129
     atom  181 type  4   force =    -0.00000067    0.00000087   -0.00000162
     atom  182 type  4   force =     0.00000043   -0.00000122   -0.00000169
     atom  183 type  4   force =    -0.00000052   -0.00000061   -0.00000049
     atom  184 type  4   force =    -0.00000003    0.00000017   -0.00000037
     atom  185 type  4   force =     0.00000036    0.00000023   -0.00000037
     atom  186 type  4   force =    -0.00000091   -0.00000009   -0.00000078
     atom  187 type  4   force =    -0.00000021    0.00000028   -0.00000125
     atom  188 type  4   force =     0.00000011   -0.00000063   -0.00000035
     atom  189 type  4   force =     0.00000028   -0.00000037   -0.00000057
     atom  190 type  4   force =    -0.00000036    0.00000032   -0.00000046
     atom  191 type  4   force =    -0.00000006    0.00000011   -0.00000012
     atom  192 type  4   force =     0.00000113   -0.00000018   -0.00000051
     atom  193 type  4   force =    -0.00000059    0.00000065   -0.00000081
     atom  194 type  4   force =     0.00000073   -0.00000061   -0.00000088
     atom  195 type  4   force =     0.00000015    0.00000071   -0.00000082
     atom  196 type  4   force =     0.00000009    0.00000080   -0.00000053
     atom  197 type  4   force =    -0.00000043    0.00000024    0.00000001
     atom  198 type  4   force =    -0.00000042   -0.00000078    0.00000039
     atom  199 type  4   force =    -0.00000002   -0.00000046   -0.00000006
     atom  200 type  4   force =     0.00000031    0.00000033   -0.00000041
     atom  201 type  4   force =    -0.00000039   -0.00000009   -0.00000023
     atom  202 type  4   force =    -0.00000033   -0.00000035    0.00000032
     atom  203 type  4   force =    -0.00000042   -0.00000036    0.00000056
     atom  204 type  4   force =     0.00000093   -0.00000044    0.00000093
     atom  205 type  4   force =    -0.00000060   -0.00000022    0.00000041
     atom  206 type  4   force =    -0.00000000    0.00000061    0.00000049
     atom  207 type  4   force =     0.00000039    0.00000038    0.00000143
     atom  208 type  4   force =     0.00000039    0.00000009    0.00000193
     atom  209 type  4   force =    -0.00000036    0.00000017    0.00000127
     atom  210 type  4   force =    -0.00000012    0.00000034    0.00000178
     atom  211 type  4   force =    -0.00000048    0.00000069    0.00000086
     atom  212 type  4   force =     0.00000130   -0.00000016    0.00000141
     atom  213 type  4   force =     0.00000005   -0.00000044    0.00000192
     atom  214 type  4   force =    -0.00000027   -0.00000047    0.00000192
     atom  215 type  4   force =     0.00000047    0.00000042    0.00000224
     atom  216 type  4   force =    -0.00000015   -0.00000085    0.00000177
     atom  217 type  4   force =    -0.00000096   -0.00000030    0.00000173
     atom  218 type  4   force =     0.00000018    0.00000038    0.00000152
     atom  219 type  4   force =    -0.00000028   -0.00000041    0.00000103
     atom  220 type  4   force =    -0.00000015    0.00000009    0.00000122
     atom  221 type  4   force =    -0.00000049    0.00000076    0.00000200
     atom  222 type  4   force =     0.00000074   -0.00000037    0.00000268
     atom  223 type  4   force =     0.00000001    0.00000018    0.00000126
     atom  224 type  4   force =     0.00000018   -0.00000024    0.00000159
     atom  225 type  4   force =    -0.00000013    0.00000019    0.00000145
     atom  226 type  4   force =     0.00000054    0.00000031    0.00000165
     atom  227 type  4   force =    -0.00000008    0.00000025    0.00000261
     atom  228 type  4   force =     0.00000034   -0.00000018    0.00000317
     atom  229 type  4   force =    -0.00000049    0.00000069    0.00000253
     atom  230 type  4   force =    -0.00000010   -0.00000084    0.00000251
     atom  231 type  4   force =     0.00000000   -0.00000028    0.00000205
     atom  232 type  4   force =     0.00000031   -0.00000010    0.00000277
     atom  233 type  4   force =     0.00000039    0.00000034    0.00000253
     atom  234 type  4   force =    -0.00000018   -0.00000026    0.00000208
     atom  235 type  4   force =    -0.00000053    0.00000000    0.00000222
     atom  236 type  4   force =    -0.00000065   -0.00000054    0.00000313
     atom  237 type  4   force =     0.00000059    0.00000007    0.00000187
     atom  238 type  4   force =     0.00000031    0.00000051    0.00000209
     atom  239 type  4   force =     0.00000020   -0.00000012    0.00000319
     atom  240 type  4   force =     0.00000039   -0.00000078    0.00000193
     atom  241 type  4   force =    -0.00000085    0.00000038    0.00000090
     atom  242 type  4   force =     0.00000100   -0.00000017    0.00000144
     atom  243 type  4   force =    -0.00000064    0.00000092    0.00000047
     atom  244 type  4   force =    -0.00000011    0.00000110    0.00000083
     atom  245 type  4   force =    -0.00000058    0.00000002    0.00000173
     atom  246 type  4   force =    -0.00000051   -0.00000054    0.00000132
     atom  247 type  4   force =     0.00000069   -0.00000073    0.00000092
     atom  248 type  4   force =     0.00000106    0.00000044    0.00000070
     atom  249 type  4   force =     0.00000002    0.00000016    0.00000013
     atom  250 type  4   force =     0.00000010   -0.00000074    0.00000170
     atom  251 type  4   force =    -0.00000125   -0.00000070    0.00000064
     atom  252 type  4   force =     0.00000018   -0.00000084    0.00000119
     atom  253 type  4   force =     0.00000005    0.00000141    0.00000085
     atom  254 type  4   force =     0.00000144    0.00000101    0.00000195
     atom  255 type  4   force =    -0.00000053    0.00000074    0.00000071
     atom  256 type  4   force =    -0.00000038   -0.00000114    0.00000158
     atom  257 type  4   force =    -0.00000137    0.00000072   -0.00000009
     atom  258 type  4   force =    -0.00000094   -0.00000081    0.00000212
     atom  259 type  4   force =    -0.00000037    0.00000043    0.00000113
     atom  260 type  4   force =     0.00000151   -0.00000003    0.00000083
     atom  261 type  4   force =     0.00000113   -0.00000110    0.00000192
     atom  262 type  4   force =     0.00000077   -0.00000192    0.00000063
     atom  263 type  4   force =    -0.00000082    0.00000129    0.00000177
     atom  264 type  4   force =    -0.00000014    0.00000057    0.00000097
     atom  265 type  4   force =    -0.00000117    0.00000191   -0.00000225
     atom  266 type  4   force =     0.00000085    0.00000005    0.00000239
     atom  267 type  4   force =    -0.00000098   -0.00000029    0.00000155
     atom  268 type  4   force =    -0.00000102   -0.00000028    0.00000182
     atom  269 type  4   force =     0.00000147   -0.00000053   -0.00000023
     atom  270 type  4   force =     0.00000469   -0.00000040    0.00000225
     atom  271 type  4   force =    -0.00000092   -0.00000133    0.00000095
     atom  272 type  4   force =    -0.00000252    0.00000045    0.00000079
     atom  273 type  4   force =    -0.00000106    0.00000013    0.00000133
     atom  274 type  4   force =    -0.00000134   -0.00000162    0.00000068
     atom  275 type  4   force =     0.00000149    0.00000386    0.00000287
     atom  276 type  4   force =     0.00000198   -0.00000004    0.00000045
     atom  277 type  4   force =     0.00000141   -0.00000034    0.00000031
     atom  278 type  4   force =     0.00000067   -0.00000318    0.00000236
     atom  279 type  4   force =     0.00000017   -0.00000086    0.00000127
     atom  280 type  4   force =    -0.00000213   -0.00000007    0.00000125
     atom  281 type  4   force =    -0.00000261   -0.00000200    0.00000074
     atom  282 type  4   force =    -0.00000119    0.00000067    0.00000228
     atom  283 type  4   force =    -0.00000191    0.00000223    0.00000411
     atom  284 type  4   force =     0.00000029   -0.00000065   -0.00000062
     atom  285 type  4   force =    -0.00000028   -0.00000169    0.00000030
     atom  286 type  4   force =    -0.00000147    0.00000089    0.00000053
     atom  287 type  4   force =     0.00000222   -0.00000124   -0.00000132
     atom  288 type  4   force =     0.00000429    0.00000116    0.00000780

     Total force =     0.102694     Total SCF correction =     0.000044

     Writing all to output data dir ./temp/M0D00125Ha.save/

     init_run     :      5.84s CPU      5.04s WALL (       1 calls)
     electrons    :    555.13s CPU    475.34s WALL (       1 calls)
     forces       :      4.25s CPU      3.10s WALL (       1 calls)

     Called by init_run:
     wfcinit      :      2.94s CPU      2.89s WALL (       1 calls)
     potinit      :      0.92s CPU      0.50s WALL (       1 calls)
     hinit0       :      1.38s CPU      1.04s WALL (       1 calls)

     Called by electrons:
     c_bands      :    520.03s CPU    457.17s WALL (      26 calls)
     sum_band     :     32.92s CPU     16.59s WALL (      26 calls)
     v_of_rho     :      1.66s CPU      1.10s WALL (      27 calls)
     mix_rho      :      0.36s CPU      0.24s WALL (      26 calls)

     Called by c_bands:
     init_us_2    :      2.35s CPU      1.25s WALL (      53 calls)
     init_us_2:cp :      2.35s CPU      1.25s WALL (      53 calls)
     regterg      :    514.92s CPU    454.08s WALL (      42 calls)

     Called by *egterg:
     rdiaghg      :    137.60s CPU     78.51s WALL (     606 calls)
     h_psi        :    249.51s CPU    247.51s WALL (     607 calls)
     g_psi        :      0.92s CPU      0.46s WALL (     564 calls)

     Called by h_psi:
     h_psi:calbec :     50.61s CPU     50.63s WALL (     607 calls)
     vloc_psi     :    149.79s CPU    147.72s WALL (     607 calls)
     add_vuspsi   :     47.50s CPU     48.33s WALL (     607 calls)

     General routines
     calbec       :     51.94s CPU     51.95s WALL (     611 calls)
     fft          :      1.23s CPU      0.93s WALL (     224 calls)
     ffts         :      0.14s CPU      0.07s WALL (      26 calls)
     fftw         :    166.43s CPU    150.39s WALL (  161832 calls)

     Parallel routines

     PWSCF        :   9m37.76s CPU   8m19.18s WALL


   This run was terminated on:  16:37:27  20Mar2025            

=------------------------------------------------------------------------------=
   JOB DONE.
=------------------------------------------------------------------------------=
