
     Program PWSCF v.7.2 starts on 20Mar2025 at 16:21:41 

     This program is part of the open-source Quantum ESPRESSO suite
     for quantum simulation of materials; please cite
         "P. Giannozzi et al., J. Phys.:Condens. Matter 21 395502 (2009);
         "P. Giannozzi et al., J. Phys.:Condens. Matter 29 465901 (2017);
         "P. Giannozzi et al., J. Chem. Phys. 152 154105 (2020);
          URL http://www.quantum-espresso.org", 
     in publications or presentations arising from this work. More details at
     http://www.quantum-espresso.org/quote

     Parallel version (MPI & OpenMP), running on     480 processor cores
     Number of MPI processes:               240
     Threads/MPI process:                     2

     MPI processes distributed on    10 nodes
     716496 MiB available memory on the printing compute node when the environment starts

     Reading input from LLZO_LaTermination_0D0035Ha.scf.in

     Current dimensions of program PWSCF are:
     Max number of different atomic species (ntypx) = 10
     Max number of k-points (npk) =  40000
     Max angular momentum in pseudopotentials (lmaxx) =  4

     gamma-point specific algorithms are used

     R & G space division:  proc/nbgrp/npool/nimage =     240
     Subspace diagonalization in iterative solution of the eigenvalue problem:
     one sub-group per band group will be used
     ELPA distributed-memory algorithm (size of sub-group: 11* 11 procs)


     Parallelization info
     --------------------
     sticks:   dense  smooth     PW     G-vecs:    dense   smooth      PW
     Min          50      50     11                18754    18754    2312
     Max          52      52     14                18892    18892    2426
     Sum       12387   12387   3101              4520369  4520369  565145

     Using Slab Decomposition



     bravais-lattice index     =            0
     lattice parameter (alat)  =      21.3406  a.u.
     unit-cell volume          =   39187.6345 (a.u.)^3
     number of atoms/cell      =          288
     number of atomic types    =            4
     number of electrons       =      1800.00
     number of Kohn-Sham states=         1080
     kinetic-energy cutoff     =      90.0000  Ry
     charge density cutoff     =     360.0000  Ry
     scf convergence threshold =      1.0E-09
     mixing beta               =       0.7000
     number of iterations used =            8  plain     mixing
     Exchange-correlation= PBE
                           (   1   4   3   4   0   0   0)

     celldm(1)=  21.340634  celldm(2)=   0.000000  celldm(3)=   0.000000
     celldm(4)=   0.000000  celldm(5)=   0.000000  celldm(6)=   0.000000

     crystal axes: (cart. coord. in units of alat)
               a(1) = (   1.000000   0.000000   0.000000 )  
               a(2) = (  -0.316403   0.948624   0.000000 )  
               a(3) = (   0.000000   0.000000   4.250429 )  

     reciprocal axes: (cart. coord. in units 2 pi/alat)
               b(1) = (  1.000000  0.333539 -0.000000 )  
               b(2) = (  0.000000  1.054158  0.000000 )  
               b(3) = (  0.000000 -0.000000  0.235270 )  


     PseudoPot. # 1 for Li read from file:
     ./Li.upf
     MD5 check sum: 36b212ba84a3343c64836813e23b5a31
     Pseudo is Norm-conserving, Zval =  3.0
     Generated using ONCVPSP code by D. R. Hamann
     Using radial grid of 1938 points,  4 beta functions with: 
                l(1) =   0
                l(2) =   0
                l(3) =   1
                l(4) =   1

     PseudoPot. # 2 for La read from file:
     ./La.upf
     MD5 check sum: 94ac605e04917972278bb538f6bd832e
     Pseudo is Norm-conserving + core correction, Zval = 11.0
     Generated using ONCVPSP code by D. R. Hamann
     Using radial grid of 1816 points,  8 beta functions with: 
                l(1) =   0
                l(2) =   0
                l(3) =   1
                l(4) =   1
                l(5) =   2
                l(6) =   2
                l(7) =   3
                l(8) =   3

     PseudoPot. # 3 for Zr read from file:
     ./Zr.upf
     MD5 check sum: 7356faafce8c11995bde75aded518977
     Pseudo is Norm-conserving + core correction, Zval = 12.0
     Generated using ONCVPSP code by D. R. Hamann
     Using radial grid of 1612 points,  6 beta functions with: 
                l(1) =   0
                l(2) =   0
                l(3) =   1
                l(4) =   1
                l(5) =   2
                l(6) =   2

     PseudoPot. # 4 for O  read from file:
     ./O.upf
     MD5 check sum: f9f408bc39120c85e44a0bb1c57dbd9f
     Pseudo is Norm-conserving + core correction, Zval =  6.0
     Generated using ONCVPSP code by D. R. Hamann
     Using radial grid of  934 points,  5 beta functions with: 
                l(1) =   0
                l(2) =   0
                l(3) =   1
                l(4) =   1
                l(5) =   2

     atomic species   valence    mass     pseudopotential
        Li             3.00     6.90000     Li( 1.00)
        La            11.00   139.00000     La( 1.00)
        Zr            12.00    91.22400     Zr( 1.00)
        O              6.00    16.00000     O ( 1.00)

     No symmetry found



   Cartesian axes

     site n.     atom                  positions (alat units)
         1           Li  tau(   1) = (  -0.0401741   0.5314518   0.9528658  )
         2           Li  tau(   2) = (   0.1309308   0.0696081   0.9385469  )
         3           Li  tau(   3) = (   0.8538406   0.0434466   0.9666809  )
         4           Li  tau(   4) = (   0.7118945   0.5489094   1.0005721  )
         5           Li  tau(   5) = (  -0.2409594   0.7769992   1.0208612  )
         6           Li  tau(   6) = (   0.3459555   0.9486075   1.0723897  )
         7           Li  tau(   7) = (   0.1356213   0.5221967   1.0728849  )
         8           Li  tau(   8) = (  -0.1896788   0.9477617   1.1409935  )
         9           Li  tau(   9) = (   0.6170900   0.5210270   1.1890965  )
        10           Li  tau(  10) = (   0.2309895   0.6668810   1.2076216  )
        11           Li  tau(  11) = (   0.2165960   0.9161132   1.2242957  )
        12           Li  tau(  12) = (   0.4182676   0.5328995   1.2974048  )
        13           Li  tau(  13) = (   0.2942079   0.0022691   1.2965237  )
        14           Li  tau(  14) = (   0.1771489   0.4655346   1.2882004  )
        15           Li  tau(  15) = (   0.6393455   0.1375649   1.3415002  )
        16           Li  tau(  16) = (   0.1335419   0.1468095   1.3351564  )
        17           Li  tau(  17) = (   0.6320857   0.3742104   1.3490262  )
        18           Li  tau(  18) = (   0.0399456   0.3312435   1.4167569  )
        19           Li  tau(  19) = (   0.8171725   0.2454882   1.4305787  )
        20           Li  tau(  20) = (   0.5613585   0.5676589   1.4466564  )
        21           Li  tau(  21) = (  -0.1079433   0.8954757   1.5056956  )
        22           Li  tau(  22) = (   0.7056349   0.1025367   1.5792814  )
        23           Li  tau(  23) = (   0.0320763   0.4625938   1.6111084  )
        24           Li  tau(  24) = (  -0.2553978   0.7734398   1.6148849  )
        25           Li  tau(  25) = (   0.5413538   0.6917385   1.6240346  )
        26           Li  tau(  26) = (  -0.0635491   0.6739187   1.6619951  )
        27           Li  tau(  27) = (  -0.0532046   0.8916387   1.7146366  )
        28           Li  tau(  28) = (   0.4428583   0.8747493   1.7009824  )
        29           Li  tau(  29) = (   0.5612555   0.0651713   1.7472496  )
        30           Li  tau(  30) = (   0.4193567   0.5433533   1.7379959  )
        31           Li  tau(  31) = (   0.2128411   0.4645996   1.7790350  )
        32           Li  tau(  32) = (   0.3581659   0.1027038   1.8261314  )
        33           Li  tau(  33) = (   0.3737168   0.3226177   1.8347685  )
        34           Li  tau(  34) = (  -0.0137717   0.4956248   1.8308839  )
        35           Li  tau(  35) = (   0.7503689   0.0750828   1.8671986  )
        36           Li  tau(  36) = (   0.4481022   0.4998232   1.9550951  )
        37           Li  tau(  37) = (   0.2360226   0.0770414   2.0097381  )
        38           Li  tau(  38) = (   0.8478227   0.2280218   2.0167662  )
        39           Li  tau(  39) = (  -0.1413950   0.4617279   2.0265256  )
        40           Li  tau(  40) = (   0.0279178   0.0844800   2.0985060  )
        41           Li  tau(  41) = (   0.6418812   0.4963596   2.1045683  )
        42           Li  tau(  42) = (   0.8006875   0.0225167   2.1037308  )
        43           Li  tau(  43) = (  -0.0415310   0.6284323   2.1538031  )
        44           Li  tau(  44) = (   0.4593846   0.6267310   2.1528822  )
        45           Li  tau(  45) = (  -0.0515820   0.8631856   2.1612773  )
        46           Li  tau(  46) = (   0.3581290   0.8224719   2.2309911  )
        47           Li  tau(  47) = (   0.1405007   0.7382607   2.2406643  )
        48           Li  tau(  48) = (   0.1905771   0.1113115   2.2480655  )
        49           Li  tau(  49) = (   0.5237185   0.4442202   2.3019042  )
        50           Li  tau(  50) = (   0.0237434   0.5980741   2.3881179  )
        51           Li  tau(  51) = (   0.6650222   0.0049314   2.4262732  )
        52           Li  tau(  52) = (   0.3814689   0.3172837   2.4230060  )
        53           Li  tau(  53) = (   0.1743810   0.2345610   2.4327829  )
        54           Li  tau(  54) = (   0.5710180   0.2062794   2.4867857  )
        55           Li  tau(  55) = (   0.5744325   0.4303424   2.5199329  )
        56           Li  tau(  56) = (   0.0740953   0.4177703   2.5111206  )
        57           Li  tau(  57) = (  -0.1187133   0.5610496   2.5584903  )
        58           Li  tau(  58) = (   0.0519769   0.0928062   2.5487406  )
        59           Li  tau(  59) = (   0.8445231   0.0127362   2.5939746  )
        60           Li  tau(  60) = (   0.6735025   0.5957282   2.6343368  )
        61           Li  tau(  61) = (   0.6905210   0.8193168   2.6413502  )
        62           Li  tau(  62) = (   0.6141528   0.0352054   2.6511848  )
        63           Li  tau(  63) = (   0.0704674   0.5661842   2.6824947  )
        64           Li  tau(  64) = (   0.0798383   0.0473235   2.7647392  )
        65           Li  tau(  65) = (   0.5499762   0.5657113   2.8171637  )
        66           Li  tau(  66) = (   0.1662536   0.7290179   2.8267159  )
        67           Li  tau(  67) = (   0.4855838   0.0094029   2.8481367  )
        68           Li  tau(  68) = (   0.3401180   0.5827416   2.9065538  )
        69           Li  tau(  69) = (   0.2652705   0.0454758   2.9235969  )
        70           Li  tau(  70) = (   0.1217015   0.5209083   2.9105600  )
        71           Li  tau(  71) = (   0.5876259   0.1828756   2.9787643  )
        72           Li  tau(  72) = (   0.0617813   0.1805987   2.9756636  )
        73           Li  tau(  73) = (   0.6004570   0.4102551   2.9836354  )
        74           Li  tau(  74) = (  -0.0044596   0.3772326   3.0327479  )
        75           Li  tau(  75) = (   0.7948367   0.3024377   3.0594680  )
        76           Li  tau(  76) = (   0.5091677   0.6011066   3.0432121  )
        77           Li  tau(  77) = (  -0.1997955   0.9442241   3.0930330  )
        78           Li  tau(  78) = (   0.6580205   0.1960587   3.1845357  )
        79           Li  tau(  79) = (  -0.0412607   0.5050288   3.2200147  )
        80           Li  tau(  80) = (   0.6619108   0.8213569   3.2164610  )
        81           Li  tau(  81) = (   0.4667152   0.7100722   3.2487273  )
        82           Li  tau(  82) = (  -0.1334777   0.7277058   3.2617371  )
        83           Li  tau(  83) = (   0.1972213   0.0072415   3.3132217  )
        84           Li  tau(  84) = (   0.3841945   0.9459370   3.2958967  )
        85           La  tau(  85) = (   0.2479666   0.7487271   0.9240042  )
        86           La  tau(  86) = (   0.3750830   0.1032760   1.0320986  )
        87           La  tau(  87) = (   0.4108498   0.4413654   1.0291867  )
        88           La  tau(  88) = (   0.8806724   0.0952360   1.2177249  )
        89           La  tau(  89) = (  -0.1115144   0.4403914   1.2069898  )
        90           La  tau(  90) = (   0.3760646   0.2649240   1.3186865  )
        91           La  tau(  91) = (   0.7174323   0.7529258   1.3274736  )
        92           La  tau(  92) = (   0.3852939   0.8033441   1.4174621  )
        93           La  tau(  93) = (   0.0478718   0.6837298   1.4086100  )
        94           La  tau(  94) = (   0.5387887   0.3299230   1.6169527  )
        95           La  tau(  95) = (   0.1996293   0.2146087   1.6222216  )
        96           La  tau(  96) = (   0.2034911   0.7447059   1.7210685  )
        97           La  tau(  97) = (   0.8639961   0.2787414   1.7232570  )
        98           La  tau(  98) = (   0.7018434   0.5770634   1.8232028  )
        99           La  tau(  99) = (  -0.2970985   0.9351959   1.8305622  )
       100           La  tau( 100) = (   0.1948814   0.5804426   2.0269246  )
       101           La  tau( 101) = (   0.2008393   0.9361509   2.0269931  )
       102           La  tau( 102) = (   0.6942969   0.7614671   2.1289111  )
       103           La  tau( 103) = (   0.3560223   0.2917327   2.1280650  )
       104           La  tau( 104) = (   0.0159556   0.3485602   2.2304904  )
       105           La  tau( 105) = (   0.6801921   0.2308445   2.2312122  )
       106           La  tau( 106) = (  -0.1442088   0.8263428   2.4265752  )
       107           La  tau( 107) = (   0.5166062   0.7090018   2.4331518  )
       108           La  tau( 108) = (   0.8340010   0.2908115   2.5370335  )
       109           La  tau( 109) = (   0.1818851   0.7690818   2.5317492  )
       110           La  tau( 110) = (   0.3321930   0.1209856   2.6350903  )
       111           La  tau( 111) = (   0.3348582   0.4773195   2.6399246  )
       112           La  tau( 112) = (   0.8231528   0.1229007   2.8479358  )
       113           La  tau( 113) = (   0.8296707   0.4821995   2.8374207  )
       114           La  tau( 114) = (   0.3249933   0.3055389   2.9378795  )
       115           La  tau( 115) = (   0.6753111   0.7805866   2.9234142  )
       116           La  tau( 116) = (   0.3308863   0.8479971   3.0456944  )
       117           La  tau( 117) = (  -0.0074688   0.7242774   3.0356819  )
       118           La  tau( 118) = (   0.4847919   0.3992438   3.2352228  )
       119           La  tau( 119) = (   0.1520868   0.2500207   3.2277706  )
       120           La  tau( 120) = (   0.1491760   0.7643674   3.3264251  )
       121           Zr  tau( 121) = (   0.6377188   0.2615917   1.1116843  )
       122           Zr  tau( 122) = (   0.1174388   0.2619688   1.0910098  )
       123           Zr  tau( 123) = (   0.4878526   0.7432788   1.1127195  )
       124           Zr  tau( 124) = (  -0.0118360   0.7402248   1.0886267  )
       125           Zr  tau( 125) = (   0.9493535   0.0392864   1.5232742  )
       126           Zr  tau( 126) = (   0.7958436   0.5120100   1.5176883  )
       127           Zr  tau( 127) = (   0.4474616   0.0311370   1.5200999  )
       128           Zr  tau( 128) = (   0.2925957   0.5079530   1.5183259  )
       129           Zr  tau( 129) = (  -0.0498924   0.7555169   1.9267789  )
       130           Zr  tau( 130) = (   0.4498379   0.7560736   1.9266420  )
       131           Zr  tau( 131) = (   0.1077390   0.2831502   1.9269117  )
       132           Zr  tau( 132) = (   0.6092200   0.2826131   1.9249006  )
       133           Zr  tau( 133) = (   0.2663741   0.5278757   2.3322722  )
       134           Zr  tau( 134) = (   0.4263547   0.0549622   2.3305043  )
       135           Zr  tau( 135) = (   0.7661909   0.5279926   2.3318425  )
       136           Zr  tau( 136) = (   0.9236358   0.0541269   2.3323735  )
       137           Zr  tau( 137) = (   0.5807740   0.2999254   2.7412308  )
       138           Zr  tau( 138) = (   0.0797148   0.2994099   2.7383551  )
       139           Zr  tau( 139) = (   0.4219125   0.7757587   2.7384962  )
       140           Zr  tau( 140) = (  -0.0711412   0.7779923   2.7326979  )
       141           Zr  tau( 141) = (   0.8838133   0.0895808   3.1700434  )
       142           Zr  tau( 142) = (   0.7357321   0.5547446   3.1472268  )
       143           Zr  tau( 143) = (   0.3918753   0.0677421   3.1653210  )
       144           Zr  tau( 144) = (   0.2374013   0.5399984   3.1427109  )
       145           O   tau( 145) = (   0.4273855   0.8436099   0.9651490  )
       146           O   tau( 146) = (   0.0824292   0.6442089   0.9516886  )
       147           O   tau( 147) = (   0.5045727   0.2652518   0.9807854  )
       148           O   tau( 148) = (   0.2239161   0.2105859   0.9506815  )
       149           O   tau( 149) = (  -0.1014333   0.8834309   1.0067566  )
       150           O   tau( 150) = (   0.5577909   0.5941607   1.0322859  )
       151           O   tau( 151) = (   0.7494457   0.1356069   1.0524431  )
       152           O   tau( 152) = (   0.0171743   0.4030213   1.0406726  )
       153           O   tau( 153) = (   0.7280356   0.4147732   1.0831274  )
       154           O   tau( 154) = (   0.0126613   0.1121503   1.0480922  )
       155           O   tau( 155) = (   0.3212924   0.6382680   1.0707820  )
       156           O   tau( 156) = (   0.1522364   0.8556475   1.0656204  )
       157           O   tau( 157) = (  -0.1515598   0.6334951   1.0448072  )
       158           O   tau( 158) = (   0.6471026   0.8304250   1.1361875  )
       159           O   tau( 159) = (   0.2508743   0.3897829   1.1545287  )
       160           O   tau( 160) = (   0.5160530   0.1361178   1.1966360  )
       161           O   tau( 161) = (   0.5073038   0.3939765   1.2038700  )
       162           O   tau( 162) = (   0.2406841   0.1341097   1.1941272  )
       163           O   tau( 163) = (   0.3894770   0.8738009   1.2168197  )
       164           O   tau( 164) = (   0.0679953   0.6069637   1.2057346  )
       165           O   tau( 165) = (   0.0148968   0.2664882   1.2550713  )
       166           O   tau( 166) = (   0.7419805   0.2610841   1.2740031  )
       167           O   tau( 167) = (  -0.0793091   0.7998422   1.2561650  )
       168           O   tau( 168) = (   0.5142695   0.6692848   1.2867600  )
       169           O   tau( 169) = (   0.7120629   0.5281451   1.3489026  )
       170           O   tau( 170) = (   0.0344042   0.0151908   1.3568875  )
       171           O   tau( 171) = (   0.2666255   0.6046510   1.3601069  )
       172           O   tau( 172) = (   0.1714062   0.8648654   1.3751109  )
       173           O   tau( 173) = (   0.7887906   0.0709345   1.4308889  )
       174           O   tau( 174) = (  -0.0456162   0.4766592   1.4253234  )
       175           O   tau( 175) = (   0.2858863   0.0920937   1.4427768  )
       176           O   tau( 176) = (   0.4538073   0.4384712   1.4438990  )
       177           O   tau( 177) = (   0.2098197   0.3553652   1.4401462  )
       178           O   tau( 178) = (   0.5301429   0.1870787   1.4556395  )
       179           O   tau( 179) = (  -0.1547780   0.6971069   1.5008447  )
       180           O   tau( 180) = (   0.5945490   0.8028747   1.5065814  )
       181           O   tau( 181) = (  -0.0068685   0.2205628   1.5383633  )
       182           O   tau( 182) = (   0.7426216   0.3340107   1.5459333  )
       183           O   tau( 183) = (   0.0399908   0.8296294   1.5899910  )
       184           O   tau( 184) = (   0.3789678   0.6570843   1.5930099  )
       185           O   tau( 185) = (   0.2891978   0.9158865   1.6017976  )
       186           O   tau( 186) = (   0.1382820   0.5859127   1.5895691  )
       187           O   tau( 187) = (   0.6362398   0.5526996   1.6108003  )
       188           O   tau( 188) = (   0.1055337   0.0029184   1.6240961  )
       189           O   tau( 189) = (   0.4065014   0.1404890   1.6685327  )
       190           O   tau( 190) = (   0.3276682   0.4006998   1.6706198  )
       191           O   tau( 191) = (   0.8574166   0.0606502   1.6871912  )
       192           O   tau( 192) = (  -0.1206837   0.5058734   1.6873595  )
       193           O   tau( 193) = (   0.0748446   0.3609066   1.7569096  )
       194           O   tau( 194) = (   0.6583611   0.2018628   1.7601440  )
       195           O   tau( 195) = (  -0.1617902   0.7586617   1.7750471  )
       196           O   tau( 196) = (   0.5664267   0.7537696   1.7783762  )
       197           O   tau( 197) = (   0.5255665   0.4202697   1.8256546  )
       198           O   tau( 198) = (   0.1941281   0.1421395   1.8360412  )
       199           O   tau( 199) = (   0.0728304   0.6332688   1.8516382  )
       200           O   tau( 200) = (   0.3375721   0.8844472   1.8456956  )
       201           O   tau( 201) = (   0.0656870   0.8861457   1.8550115  )
       202           O   tau( 202) = (   0.3354542   0.6204574   1.8600583  )
       203           O   tau( 203) = (  -0.0472477   0.1800914   1.9001238  )
       204           O   tau( 204) = (   0.7686233   0.3809156   1.9053961  )
       205           O   tau( 205) = (   0.4483865   0.1861070   1.9411677  )
       206           O   tau( 206) = (   0.2649960   0.3880809   1.9432240  )
       207           O   tau( 207) = (   0.5709288   0.8839403   1.9944713  )
       208           O   tau( 208) = (  -0.1673537   0.6276893   1.9977306  )
       209           O   tau( 209) = (  -0.1654682   0.8820626   2.0083693  )
       210           O   tau( 210) = (   0.5600381   0.6235178   2.0052012  )
       211           O   tau( 211) = (   0.0245008   0.4227645   2.0207037  )
       212           O   tau( 212) = (   0.6934143   0.1416167   2.0188874  )
       213           O   tau( 213) = (   0.3325048   0.7614689   2.0732631  )
       214           O   tau( 214) = (   0.0600008   0.7567758   2.0811248  )
       215           O   tau( 215) = (   0.5600722   0.3542588   2.0917822  )
       216           O   tau( 216) = (   0.1457504   0.2075857   2.0956848  )
       217           O   tau( 217) = (   0.3424480   0.0663831   2.1616537  )
       218           O   tau( 218) = (   0.3499709   0.5045145   2.1651137  )
       219           O   tau( 219) = (   0.8907038   0.1580552   2.1773262  )
       220           O   tau( 220) = (   0.8085045   0.4187644   2.1847239  )
       221           O   tau( 221) = (   0.1059741   0.5637683   2.2383457  )
       222           O   tau( 222) = (   0.5853912   0.0192002   2.2375818  )
       223           O   tau( 223) = (   0.6054538   0.5901802   2.2525974  )
       224           O   tau( 224) = (  -0.2356788   0.9335534   2.2509666  )
       225           O   tau( 225) = (   0.5235546   0.8499673   2.2620540  )
       226           O   tau( 226) = (  -0.1502241   0.6836438   2.2648068  )
       227           O   tau( 227) = (   0.4759516   0.2367742   2.3122298  )
       228           O   tau( 228) = (   0.2252583   0.3452255   2.3158339  )
       229           O   tau( 229) = (   0.3089769   0.7106516   2.3507560  )
       230           O   tau( 230) = (   0.0598438   0.8236304   2.3555445  )
       231           O   tau( 231) = (   0.6748381   0.3761921   2.3982177  )
       232           O   tau( 232) = (   0.0096835   0.2052172   2.4050826  )
       233           O   tau( 233) = (  -0.0767336   0.4627083   2.4129477  )
       234           O   tau( 234) = (   0.7684597   0.1308599   2.4072604  )
       235           O   tau( 235) = (   0.2654941   0.0921704   2.4220922  )
       236           O   tau( 236) = (   0.4239097   0.4926305   2.4310885  )
       237           O   tau( 237) = (   0.7246502   0.6382534   2.4789915  )
       238           O   tau( 238) = (   0.6455974   0.8977877   2.4841063  )
       239           O   tau( 239) = (   0.1746452   0.5506560   2.4963779  )
       240           O   tau( 240) = (   0.5090804   0.0462714   2.5006341  )
       241           O   tau( 241) = (   0.3895869   0.8531902   2.5696702  )
       242           O   tau( 242) = (  -0.0222483   0.6973276   2.5697583  )
       243           O   tau( 243) = (   0.4682703   0.2986710   2.5875376  )
       244           O   tau( 244) = (   0.1963774   0.2930768   2.5898446  )
       245           O   tau( 245) = (  -0.1556603   0.9168492   2.6368487  )
       246           O   tau( 246) = (   0.5093213   0.6349919   2.6490719  )
       247           O   tau( 247) = (   0.6988948   0.1762794   2.6637520  )
       248           O   tau( 248) = (  -0.0306307   0.4300256   2.6567819  )
       249           O   tau( 249) = (   0.6941465   0.4300435   2.6652903  )
       250           O   tau( 250) = (  -0.0348807   0.1650300   2.6716964  )
       251           O   tau( 251) = (   0.2682703   0.6705035   2.7126025  )
       252           O   tau( 252) = (   0.0876737   0.8760775   2.7198171  )
       253           O   tau( 253) = (   0.7674728   0.6823684   2.7451133  )
       254           O   tau( 254) = (   0.5784280   0.8815986   2.7516547  )
       255           O   tau( 255) = (   0.2016423   0.4283146   2.8021403  )
       256           O   tau( 256) = (   0.4631313   0.1753190   2.8217422  )
       257           O   tau( 257) = (   0.4604479   0.4266897   2.8158828  )
       258           O   tau( 258) = (   0.1893437   0.1692683   2.8197750  )
       259           O   tau( 259) = (   0.3341957   0.9123330   2.8338235  )
       260           O   tau( 260) = (   0.0109518   0.6377609   2.8309482  )
       261           O   tau( 261) = (  -0.0405151   0.3044934   2.8830219  )
       262           O   tau( 262) = (   0.6919956   0.3036649   2.8916371  )
       263           O   tau( 263) = (  -0.1219692   0.8480587   2.8995149  )
       264           O   tau( 264) = (   0.4601571   0.7057095   2.9116319  )
       265           O   tau( 265) = (   0.6610157   0.5647212   2.9590270  )
       266           O   tau( 266) = (   0.9721176   0.0366668   2.9864638  )
       267           O   tau( 267) = (   0.2062559   0.6531552   2.9902705  )
       268           O   tau( 268) = (   0.1173061   0.9087102   3.0123843  )
       269           O   tau( 269) = (   0.7308552   0.1106778   3.0466528  )
       270           O   tau( 270) = (  -0.1039457   0.5145492   3.0462299  )
       271           O   tau( 271) = (   0.2352366   0.1314950   3.0693376  )
       272           O   tau( 272) = (   0.3974793   0.4778629   3.0590249  )
       273           O   tau( 273) = (   0.1584567   0.3955862   3.0575547  )
       274           O   tau( 274) = (   0.4783659   0.2212572   3.1116490  )
       275           O   tau( 275) = (  -0.2250217   0.7449031   3.1155313  )
       276           O   tau( 276) = (   0.5003556   0.8579194   3.1855030  )
       277           O   tau( 277) = (  -0.0398109   0.2555246   3.1385110  )
       278           O   tau( 278) = (   0.6721747   0.3781719   3.1448816  )
       279           O   tau( 279) = (  -0.0128929   0.8464739   3.2354956  )
       280           O   tau( 280) = (   0.3073175   0.6932600   3.2299859  )
       281           O   tau( 281) = (   0.2247218   0.9322135   3.2444881  )
       282           O   tau( 282) = (   0.0815148   0.6133238   3.2143656  )
       283           O   tau( 283) = (   0.5648201   0.5886521   3.2126606  )
       284           O   tau( 284) = (   0.0469442   0.0332460   3.2464786  )
       285           O   tau( 285) = (   0.3020974   0.1360316   3.3077066  )
       286           O   tau( 286) = (   0.2794488   0.4199818   3.2760468  )
       287           O   tau( 287) = (   0.7704661   0.1392517   3.2929744  )
       288           O   tau( 288) = (  -0.1679624   0.5739047   3.2927061  )

     number of k points=     1  Fermi-Dirac smearing, width (Ry)=  0.0000
                       cart. coord. in units 2pi/alat
        k(    1) = (   0.0000000   0.0000000   0.0000000), wk =   2.0000000

     Dense  grid:  2260185 G-vectors     FFT dimensions: ( 135, 135, 576)

     Estimated max dynamical RAM per process >     229.15 MB

     Estimated total dynamical RAM >      53.71 GB

     Initial potential from superposition of free atoms

     starting charge    1799.2393, renormalised to    1800.0000

     negative rho (up, down):  4.061E-04 0.000E+00

     Adding external electric field

     Computed dipole along edir(3) : 
        Dipole               -0.0004 Ry au,         -0.0010 Debye
        Dipole field         -0.0000 Ry au, 

        E field amplitude [Ha a.u.]:  3.5000E-03
        Potential amp.        0.5080 Ry
        Total length         72.5655 bohr

     Starting wfcs are 1344 atomic wfcs

     total cpu time spent up to now is        5.3 secs

     Self-consistent Calculation

     iteration #  1     ecut=    90.00 Ry     beta= 0.70
     Davidson diagonalization with overlap
     ethr =  1.00E-02,  avg # of iterations =  2.0

     negative rho (up, down):  1.133E-04 0.000E+00

     Adding external electric field

     Computed dipole along edir(3) : 
        Dipole                7.0357 Ry au,         17.8830 Debye
        Dipole field          0.0023 Ry au, 

        E field amplitude [Ha a.u.]:  3.5000E-03
        Potential amp.        0.1805 Ry
        Total length         72.5655 bohr


     total cpu time spent up to now is       12.0 secs

     total energy              =  -10936.77637845 Ry
     estimated scf accuracy    <      84.62420824 Ry

     iteration #  2     ecut=    90.00 Ry     beta= 0.70
     Davidson diagonalization with overlap
     ethr =  4.70E-03,  avg # of iterations =  4.0

     negative rho (up, down):  4.926E-05 0.000E+00

     Adding external electric field

     Computed dipole along edir(3) : 
        Dipole               -2.6129 Ry au,         -6.6414 Debye
        Dipole field         -0.0008 Ry au, 

        E field amplitude [Ha a.u.]:  3.5000E-03
        Potential amp.        0.6296 Ry
        Total length         72.5655 bohr


     total cpu time spent up to now is       22.1 secs

     total energy              =  -10929.60587835 Ry
     estimated scf accuracy    <     234.38577510 Ry

     iteration #  3     ecut=    90.00 Ry     beta= 0.70
     Davidson diagonalization with overlap
     ethr =  4.70E-03,  avg # of iterations = 14.0

     negative rho (up, down):  4.435E-05 0.000E+00

     Adding external electric field

     Computed dipole along edir(3) : 
        Dipole               17.0023 Ry au,         43.2156 Debye
        Dipole field          0.0055 Ry au, 

        E field amplitude [Ha a.u.]:  3.5000E-03
        Potential amp.       -0.2833 Ry
        Total length         72.5655 bohr


     total cpu time spent up to now is       40.3 secs

     total energy              =  -10858.32795110 Ry
     estimated scf accuracy    <   55720.69782761 Ry

     iteration #  4     ecut=    90.00 Ry     beta= 0.70
     Davidson diagonalization with overlap
     ethr =  4.70E-03,  avg # of iterations = 18.0

     negative rho (up, down):  2.096E-05 0.000E+00

     Adding external electric field

     Computed dipole along edir(3) : 
        Dipole               11.8607 Ry au,         30.1468 Debye
        Dipole field          0.0038 Ry au, 

        E field amplitude [Ha a.u.]:  3.5000E-03
        Potential amp.       -0.0440 Ry
        Total length         72.5655 bohr


     total cpu time spent up to now is       53.8 secs

     total energy              =  -10939.61708590 Ry
     estimated scf accuracy    <    2093.63612232 Ry

     iteration #  5     ecut=    90.00 Ry     beta= 0.70
     Davidson diagonalization with overlap
     ethr =  4.70E-03,  avg # of iterations =  8.0

     negative rho (up, down):  7.998E-07 0.000E+00

     Adding external electric field

     Computed dipole along edir(3) : 
        Dipole                8.4450 Ry au,         21.4650 Debye
        Dipole field          0.0027 Ry au, 

        E field amplitude [Ha a.u.]:  3.5000E-03
        Potential amp.        0.1149 Ry
        Total length         72.5655 bohr


     total cpu time spent up to now is       63.5 secs

     total energy              =  -10971.95248372 Ry
     estimated scf accuracy    <      99.66324750 Ry

     iteration #  6     ecut=    90.00 Ry     beta= 0.70
     Davidson diagonalization with overlap
     ethr =  4.70E-03,  avg # of iterations =  3.0

     Adding external electric field

     Computed dipole along edir(3) : 
        Dipole                6.2321 Ry au,         15.8405 Debye
        Dipole field          0.0020 Ry au, 

        E field amplitude [Ha a.u.]:  3.5000E-03
        Potential amp.        0.2179 Ry
        Total length         72.5655 bohr


     total cpu time spent up to now is       69.9 secs

     total energy              =  -10979.18223716 Ry
     estimated scf accuracy    <       6.26226157 Ry

     iteration #  7     ecut=    90.00 Ry     beta= 0.70
     Davidson diagonalization with overlap
     ethr =  3.48E-04,  avg # of iterations = 15.0

     Adding external electric field

     Computed dipole along edir(3) : 
        Dipole                4.9061 Ry au,         12.4700 Debye
        Dipole field          0.0016 Ry au, 

        E field amplitude [Ha a.u.]:  3.5000E-03
        Potential amp.        0.2796 Ry
        Total length         72.5655 bohr


     total cpu time spent up to now is       82.4 secs

     total energy              =  -10980.15902071 Ry
     estimated scf accuracy    <       1.99012682 Ry

     iteration #  8     ecut=    90.00 Ry     beta= 0.70
     Davidson diagonalization with overlap
     ethr =  1.11E-04,  avg # of iterations = 16.0

     negative rho (up, down):  7.603E-04 0.000E+00

     Adding external electric field

     Computed dipole along edir(3) : 
        Dipole                4.2676 Ry au,         10.8470 Debye
        Dipole field          0.0014 Ry au, 

        E field amplitude [Ha a.u.]:  3.5000E-03
        Potential amp.        0.3093 Ry
        Total length         72.5655 bohr


     total cpu time spent up to now is       94.8 secs

     total energy              =  -10980.13435071 Ry
     estimated scf accuracy    <       0.83962620 Ry

     iteration #  9     ecut=    90.00 Ry     beta= 0.70
     Davidson diagonalization with overlap
     ethr =  4.66E-05,  avg # of iterations = 18.0

     negative rho (up, down):  6.439E-04 0.000E+00

     Adding external electric field

     Computed dipole along edir(3) : 
        Dipole                3.4354 Ry au,          8.7319 Debye
        Dipole field          0.0011 Ry au, 

        E field amplitude [Ha a.u.]:  3.5000E-03
        Potential amp.        0.3481 Ry
        Total length         72.5655 bohr


     total cpu time spent up to now is      109.7 secs

     total energy              =  -10980.25200525 Ry
     estimated scf accuracy    <       0.09408820 Ry

     iteration # 10     ecut=    90.00 Ry     beta= 0.70
     Davidson diagonalization with overlap
     c_bands:  2 eigenvalues not converged
     ethr =  5.23E-06,  avg # of iterations = 40.0

     negative rho (up, down):  2.445E-04 0.000E+00

     Adding external electric field

     Computed dipole along edir(3) : 
        Dipole                3.6706 Ry au,          9.3296 Debye
        Dipole field          0.0012 Ry au, 

        E field amplitude [Ha a.u.]:  3.5000E-03
        Potential amp.        0.3371 Ry
        Total length         72.5655 bohr


     total cpu time spent up to now is      134.2 secs

     total energy              =  -10980.26478253 Ry
     estimated scf accuracy    <       0.07929954 Ry

     iteration # 11     ecut=    90.00 Ry     beta= 0.70
     Davidson diagonalization with overlap
     ethr =  4.41E-06,  avg # of iterations = 12.0

     negative rho (up, down):  5.340E-05 0.000E+00

     Adding external electric field

     Computed dipole along edir(3) : 
        Dipole                3.5713 Ry au,          9.0772 Debye
        Dipole field          0.0011 Ry au, 

        E field amplitude [Ha a.u.]:  3.5000E-03
        Potential amp.        0.3418 Ry
        Total length         72.5655 bohr


     total cpu time spent up to now is      142.7 secs

     total energy              =  -10980.27084267 Ry
     estimated scf accuracy    <       0.02936585 Ry

     iteration # 12     ecut=    90.00 Ry     beta= 0.70
     Davidson diagonalization with overlap
     c_bands:  5 eigenvalues not converged
     ethr =  1.63E-06,  avg # of iterations = 20.0

     negative rho (up, down):  1.220E-07 0.000E+00

     Adding external electric field

     Computed dipole along edir(3) : 
        Dipole                5.3793 Ry au,         13.6729 Debye
        Dipole field          0.0017 Ry au, 

        E field amplitude [Ha a.u.]:  3.5000E-03
        Potential amp.        0.2576 Ry
        Total length         72.5655 bohr


     total cpu time spent up to now is      152.5 secs

     total energy              =  -10980.26503737 Ry
     estimated scf accuracy    <       0.02035363 Ry

     iteration # 13     ecut=    90.00 Ry     beta= 0.70
     Davidson diagonalization with overlap
     c_bands:  2 eigenvalues not converged
     ethr =  1.13E-06,  avg # of iterations = 80.0

     negative rho (up, down):  6.771E-07 0.000E+00

     Adding external electric field

     Computed dipole along edir(3) : 
        Dipole                3.8138 Ry au,          9.6937 Debye
        Dipole field          0.0012 Ry au, 

        E field amplitude [Ha a.u.]:  3.5000E-03
        Potential amp.        0.3305 Ry
        Total length         72.5655 bohr


     total cpu time spent up to now is      207.7 secs

     total energy              =  -10980.26308259 Ry
     estimated scf accuracy    <       0.03070767 Ry

     iteration # 14     ecut=    90.00 Ry     beta= 0.70
     Davidson diagonalization with overlap
     ethr =  1.13E-06,  avg # of iterations = 56.0

     negative rho (up, down):  4.000E-06 0.000E+00

     Adding external electric field

     Computed dipole along edir(3) : 
        Dipole                4.4925 Ry au,         11.4187 Debye
        Dipole field          0.0014 Ry au, 

        E field amplitude [Ha a.u.]:  3.5000E-03
        Potential amp.        0.2989 Ry
        Total length         72.5655 bohr


     total cpu time spent up to now is      245.2 secs

     total energy              =  -10980.26305008 Ry
     estimated scf accuracy    <       0.02137237 Ry

     iteration # 15     ecut=    90.00 Ry     beta= 0.70
     Davidson diagonalization with overlap
     ethr =  1.13E-06,  avg # of iterations = 61.0

     Adding external electric field

     Computed dipole along edir(3) : 
        Dipole                4.4091 Ry au,         11.2068 Debye
        Dipole field          0.0014 Ry au, 

        E field amplitude [Ha a.u.]:  3.5000E-03
        Potential amp.        0.3028 Ry
        Total length         72.5655 bohr


     total cpu time spent up to now is      286.9 secs

     total energy              =  -10980.26616019 Ry
     estimated scf accuracy    <       0.01198711 Ry

     iteration # 16     ecut=    90.00 Ry     beta= 0.70
     Davidson diagonalization with overlap
     c_bands:  5 eigenvalues not converged
     ethr =  6.66E-07,  avg # of iterations = 40.0

     Adding external electric field

     Computed dipole along edir(3) : 
        Dipole                4.3609 Ry au,         11.0843 Debye
        Dipole field          0.0014 Ry au, 

        E field amplitude [Ha a.u.]:  3.5000E-03
        Potential amp.        0.3050 Ry
        Total length         72.5655 bohr


     total cpu time spent up to now is      310.8 secs

     total energy              =  -10980.26837598 Ry
     estimated scf accuracy    <       0.00079015 Ry

     iteration # 17     ecut=    90.00 Ry     beta= 0.70
     Davidson diagonalization with overlap
     c_bands:  1 eigenvalues not converged
     ethr =  4.39E-08,  avg # of iterations = 20.0

     Adding external electric field

     Computed dipole along edir(3) : 
        Dipole                4.3641 Ry au,         11.0924 Debye
        Dipole field          0.0014 Ry au, 

        E field amplitude [Ha a.u.]:  3.5000E-03
        Potential amp.        0.3049 Ry
        Total length         72.5655 bohr


     total cpu time spent up to now is      321.2 secs

     total energy              =  -10980.26854308 Ry
     estimated scf accuracy    <       0.00005332 Ry

     iteration # 18     ecut=    90.00 Ry     beta= 0.70
     Davidson diagonalization with overlap
     ethr =  2.96E-09,  avg # of iterations =  5.0

     Adding external electric field

     Computed dipole along edir(3) : 
        Dipole                4.3552 Ry au,         11.0697 Debye
        Dipole field          0.0014 Ry au, 

        E field amplitude [Ha a.u.]:  3.5000E-03
        Potential amp.        0.3053 Ry
        Total length         72.5655 bohr


     total cpu time spent up to now is      330.2 secs

     total energy              =  -10980.26855443 Ry
     estimated scf accuracy    <       0.00002825 Ry

     iteration # 19     ecut=    90.00 Ry     beta= 0.70
     Davidson diagonalization with overlap
     ethr =  1.57E-09,  avg # of iterations =  5.0

     Adding external electric field

     Computed dipole along edir(3) : 
        Dipole                4.3612 Ry au,         11.0851 Debye
        Dipole field          0.0014 Ry au, 

        E field amplitude [Ha a.u.]:  3.5000E-03
        Potential amp.        0.3050 Ry
        Total length         72.5655 bohr


     total cpu time spent up to now is      338.1 secs

     total energy              =  -10980.26855968 Ry
     estimated scf accuracy    <       0.00000673 Ry

     iteration # 20     ecut=    90.00 Ry     beta= 0.70
     Davidson diagonalization with overlap
     ethr =  3.74E-10,  avg # of iterations =  5.0

     negative rho (up, down):  1.406E-08 0.000E+00

     Adding external electric field

     Computed dipole along edir(3) : 
        Dipole                4.3589 Ry au,         11.0791 Debye
        Dipole field          0.0014 Ry au, 

        E field amplitude [Ha a.u.]:  3.5000E-03
        Potential amp.        0.3051 Ry
        Total length         72.5655 bohr


     total cpu time spent up to now is      346.2 secs

     total energy              =  -10980.26856090 Ry
     estimated scf accuracy    <       0.00000087 Ry

     iteration # 21     ecut=    90.00 Ry     beta= 0.70
     Davidson diagonalization with overlap
     ethr =  4.81E-11,  avg # of iterations =  5.0

     Adding external electric field

     Computed dipole along edir(3) : 
        Dipole                4.3594 Ry au,         11.0806 Debye
        Dipole field          0.0014 Ry au, 

        E field amplitude [Ha a.u.]:  3.5000E-03
        Potential amp.        0.3051 Ry
        Total length         72.5655 bohr


     total cpu time spent up to now is      356.5 secs

     total energy              =  -10980.26856121 Ry
     estimated scf accuracy    <       0.00000031 Ry

     iteration # 22     ecut=    90.00 Ry     beta= 0.70
     Davidson diagonalization with overlap
     ethr =  1.70E-11,  avg # of iterations =  5.0

     Adding external electric field

     Computed dipole along edir(3) : 
        Dipole                4.3583 Ry au,         11.0777 Debye
        Dipole field          0.0014 Ry au, 

        E field amplitude [Ha a.u.]:  3.5000E-03
        Potential amp.        0.3051 Ry
        Total length         72.5655 bohr


     total cpu time spent up to now is      365.0 secs

     total energy              =  -10980.26856125 Ry
     estimated scf accuracy    <       0.00000006 Ry

     iteration # 23     ecut=    90.00 Ry     beta= 0.70
     Davidson diagonalization with overlap
     ethr =  3.34E-12,  avg # of iterations =  5.0

     Adding external electric field

     Computed dipole along edir(3) : 
        Dipole                4.3591 Ry au,         11.0798 Debye
        Dipole field          0.0014 Ry au, 

        E field amplitude [Ha a.u.]:  3.5000E-03
        Potential amp.        0.3051 Ry
        Total length         72.5655 bohr


     total cpu time spent up to now is      374.0 secs

     total energy              =  -10980.26856126 Ry
     estimated scf accuracy    <       0.00000003 Ry

     iteration # 24     ecut=    90.00 Ry     beta= 0.70
     Davidson diagonalization with overlap
     ethr =  1.59E-12,  avg # of iterations =  4.0

     Adding external electric field

     Computed dipole along edir(3) : 
        Dipole                4.3588 Ry au,         11.0791 Debye
        Dipole field          0.0014 Ry au, 

        E field amplitude [Ha a.u.]:  3.5000E-03
        Potential amp.        0.3051 Ry
        Total length         72.5655 bohr


     total cpu time spent up to now is      382.2 secs

     total energy              =  -10980.26856126 Ry
     estimated scf accuracy    <          3.2E-09 Ry

     iteration # 25     ecut=    90.00 Ry     beta= 0.70
     Davidson diagonalization with overlap
     ethr =  1.80E-13,  avg # of iterations =  5.0

     Adding external electric field

     Computed dipole along edir(3) : 
        Dipole                4.3588 Ry au,         11.0791 Debye
        Dipole field          0.0014 Ry au, 

        E field amplitude [Ha a.u.]:  3.5000E-03
        Potential amp.        0.3051 Ry
        Total length         72.5655 bohr


     total cpu time spent up to now is      391.8 secs

     End of self-consistent calculation

          k = 0.0000 0.0000 0.0000 (282573 PWs)   bands (ev):

   -45.1537 -44.9923 -44.7968 -44.7684 -44.7609 -44.7581 -44.7468 -44.7136
   -44.5458 -44.5317 -44.5316 -44.5283 -44.3247 -44.3243 -44.3170 -44.3148
   -44.1279 -44.1148 -44.0957 -44.0787 -44.0352 -43.9305 -43.4822 -43.2988
   -41.7420 -41.3775 -41.2272 -41.2154 -41.2045 -41.2029 -41.1126 -41.0626
   -41.0612 -41.0466 -41.0334 -40.9948 -40.9818 -40.9801 -40.9789 -40.9433
   -40.9122 -40.8997 -40.8663 -40.8423 -40.8415 -40.8388 -40.8284 -40.8087
   -40.8016 -40.7963 -40.7909 -40.7671 -40.7581 -40.7560 -40.7509 -40.7076
   -40.6792 -40.6506 -40.6381 -40.6309 -40.6235 -40.5810 -40.5650 -40.5505
   -40.5276 -40.5234 -40.5057 -40.5025 -40.4944 -40.4867 -40.4823 -40.4553
   -40.4421 -40.4418 -40.4327 -40.3962 -40.3661 -40.3613 -40.3562 -40.3370
   -40.3295 -40.2603 -40.2435 -40.2369 -40.1995 -40.1738 -40.1505 -40.0908
   -40.0824 -40.0382 -40.0357 -39.9957 -39.9930 -39.9570 -39.9542 -39.8586
   -39.8248 -39.8103 -39.7147 -39.7127 -39.6514 -39.6073 -39.4965 -39.3968
   -39.3846 -39.3794 -39.3010 -38.9848 -28.3645 -27.9524 -27.7053 -27.6693
   -27.6528 -27.6444 -27.5824 -27.5377 -27.5307 -27.5201 -27.4991 -27.4304
   -27.4204 -27.3750 -27.3718 -27.3130 -27.3118 -27.2815 -27.2374 -27.1872
   -27.1546 -27.1524 -27.1336 -27.0734 -27.0212 -26.9733 -26.9636 -26.9270
   -26.9141 -26.9022 -26.8681 -26.8432 -26.8048 -26.6910 -26.6821 -26.5256
   -23.4212 -23.3468 -23.3068 -23.2662 -23.2327 -23.1877 -23.0731 -23.0503
   -23.0491 -23.0358 -23.0346 -23.0336 -23.0238 -23.0233 -23.0194 -23.0140
   -23.0093 -22.9886 -22.9850 -22.9822 -22.9802 -22.9769 -22.9695 -22.9483
   -22.8295 -22.8168 -22.8160 -22.8147 -22.8019 -22.7928 -22.7878 -22.7835
   -22.7716 -22.7586 -22.7567 -22.7526 -22.6093 -22.6077 -22.6021 -22.6002
   -22.5834 -22.5818 -22.5752 -22.5732 -22.5517 -22.5481 -22.5423 -22.5395
   -22.4174 -22.4100 -22.3955 -22.3921 -22.3805 -22.3639 -22.3576 -22.3473
   -22.3420 -22.3389 -22.3233 -22.3027 -22.2801 -22.2613 -22.2365 -22.2284
   -22.2111 -22.1752 -21.8118 -21.7429 -21.7022 -21.5955 -21.5837 -21.5015
   -15.0858 -14.9991 -14.7302 -14.6361 -14.4693 -14.4051 -14.3939 -14.3636
   -14.2711 -14.2586 -14.2115 -14.2006 -14.1751 -14.1366 -14.1152 -14.1101
   -14.0748 -14.0485 -14.0191 -14.0125 -14.0002 -13.9826 -13.9748 -13.9503
   -13.9401 -13.9198 -13.9125 -13.9028 -13.8875 -13.8800 -13.8457 -13.8331
   -13.8256 -13.8039 -13.7851 -13.7753 -13.7468 -13.7275 -13.7238 -13.7122
   -13.7011 -13.6905 -13.6871 -13.6787 -13.6651 -13.6457 -13.6353 -13.6241
   -13.6040 -13.5964 -13.5889 -13.5709 -13.5626 -13.5589 -13.5184 -13.5170
   -13.5028 -13.4906 -13.4826 -13.4797 -13.4640 -13.4446 -13.4419 -13.4356
   -13.4140 -13.4037 -13.3995 -13.3918 -13.3833 -13.3662 -13.3621 -13.3501
   -13.3475 -13.3340 -13.3291 -13.3251 -13.3060 -13.2913 -13.2733 -13.2621
   -13.2466 -13.2428 -13.2371 -13.2256 -13.2135 -13.2024 -13.1985 -13.1909
   -13.1811 -13.1682 -13.1668 -13.1581 -13.1463 -13.1323 -13.1185 -13.1134
   -13.1041 -13.0996 -13.0813 -13.0723 -13.0529 -13.0418 -13.0344 -13.0189
   -13.0110 -12.9977 -12.9847 -12.9739 -12.9650 -12.9448 -12.9370 -12.9121
   -12.9064 -12.8887 -12.8678 -12.8353 -12.8244 -12.8047 -12.7939 -12.7861
   -12.7695 -12.7536 -12.7292 -12.7057 -12.7049 -12.6852 -12.6594 -12.6345
   -12.6016 -12.5730 -12.5576 -12.5272 -12.5032 -12.4715 -12.4234 -12.3906
   -12.3618 -12.3253 -12.2896 -12.1903 -11.9574 -11.8592 -11.7521 -11.5736
   -11.4633 -11.2629 -11.2287 -11.2053 -11.1508 -11.1283 -11.1005 -11.0618
   -11.0411 -11.0274 -11.0144 -11.0032 -10.9766 -10.9386 -10.9235 -10.9218
   -10.9183 -10.8941 -10.8880 -10.8563 -10.8439 -10.8295 -10.8050 -10.7966
   -10.7949 -10.7697 -10.7616 -10.7514 -10.7374 -10.7309 -10.7100 -10.6980
   -10.6923 -10.6750 -10.6598 -10.6596 -10.6369 -10.6228 -10.6092 -10.6030
   -10.5853 -10.5832 -10.5735 -10.5618 -10.5596 -10.5432 -10.5341 -10.5218
   -10.5173 -10.5018 -10.4886 -10.4775 -10.4643 -10.4488 -10.4426 -10.4235
   -10.4160 -10.3997 -10.3921 -10.3841 -10.3783 -10.3688 -10.3670 -10.3412
   -10.3275 -10.3226 -10.3167 -10.2957 -10.2783 -10.2669 -10.2646 -10.2496
   -10.2446 -10.2297 -10.2169 -10.1995 -10.1910 -10.1786 -10.1518 -10.1448
   -10.1342 -10.1107 -10.0861 -10.0769 -10.0520 -10.0147  -9.9903  -9.9680
    -9.9479  -9.9469  -9.9299  -9.9156  -9.9052  -9.8766  -9.8563  -9.8491
    -9.8247  -9.8050  -9.7632  -9.7151  -9.6956  -9.6642  -9.6370  -9.5285
    -9.4951  -9.3448  -9.2977  -9.2166  -1.2118  -1.0786  -1.0233  -0.9867
    -0.9601  -0.9327  -0.9095  -0.8669  -0.8524  -0.8343  -0.8071  -0.7827
    -0.7712  -0.7488  -0.7134  -0.7062  -0.6549  -0.6412  -0.6202  -0.6044
    -0.5947  -0.5713  -0.5562  -0.5394  -0.5265  -0.5039  -0.4927  -0.4882
    -0.4826  -0.4749  -0.4547  -0.4437  -0.4281  -0.4092  -0.4011  -0.3901
    -0.3859  -0.3741  -0.3661  -0.3548  -0.3509  -0.3314  -0.3124  -0.3096
    -0.3075  -0.2958  -0.2900  -0.2743  -0.2720  -0.2588  -0.2425  -0.2396
    -0.2233  -0.2132  -0.2046  -0.2021  -0.1860  -0.1799  -0.1737  -0.1651
    -0.1526  -0.1482  -0.1275  -0.1173  -0.1156  -0.1118  -0.1089  -0.0963
    -0.0929  -0.0747  -0.0721  -0.0550  -0.0500  -0.0353  -0.0288  -0.0282
    -0.0130  -0.0095   0.0011   0.0075   0.0136   0.0146   0.0230   0.0280
     0.0396   0.0412   0.0470   0.0627   0.0746   0.0820   0.0886   0.0894
     0.0966   0.1044   0.1124   0.1179   0.1233   0.1347   0.1466   0.1520
     0.1632   0.1685   0.1787   0.1897   0.1983   0.1997   0.2067   0.2164
     0.2266   0.2335   0.2420   0.2435   0.2562   0.2584   0.2719   0.2758
     0.2855   0.2924   0.3001   0.3040   0.3117   0.3197   0.3224   0.3289
     0.3322   0.3381   0.3460   0.3528   0.3706   0.3802   0.3911   0.3936
     0.3998   0.4099   0.4132   0.4172   0.4230   0.4353   0.4382   0.4501
     0.4648   0.4699   0.4725   0.4822   0.4930   0.5021   0.5045   0.5241
     0.5278   0.5300   0.5352   0.5437   0.5490   0.5604   0.5695   0.5747
     0.5821   0.5872   0.5978   0.6071   0.6156   0.6272   0.6392   0.6440
     0.6491   0.6530   0.6659   0.6710   0.6733   0.6792   0.6934   0.7012
     0.7096   0.7149   0.7264   0.7337   0.7490   0.7546   0.7577   0.7727
     0.7889   0.7932   0.8063   0.8077   0.8187   0.8247   0.8269   0.8338
     0.8380   0.8508   0.8597   0.8635   0.8746   0.8828   0.8912   0.8966
     0.9026   0.9072   0.9268   0.9303   0.9396   0.9473   0.9565   0.9586
     0.9710   0.9853   0.9935   0.9994   1.0099   1.0167   1.0235   1.0310
     1.0357   1.0534   1.0573   1.0627   1.0670   1.0794   1.0889   1.0976
     1.1019   1.1105   1.1130   1.1201   1.1288   1.1375   1.1463   1.1514
     1.1623   1.1706   1.1744   1.1835   1.1902   1.2041   1.2127   1.2240
     1.2305   1.2353   1.2383   1.2487   1.2542   1.2618   1.2740   1.2841
     1.2932   1.3008   1.3116   1.3144   1.3186   1.3250   1.3281   1.3376
     1.3492   1.3533   1.3678   1.3685   1.3710   1.3783   1.3850   1.4028
     1.4086   1.4198   1.4246   1.4324   1.4398   1.4462   1.4518   1.4592
     1.4647   1.4706   1.4767   1.4912   1.4986   1.5043   1.5080   1.5146
     1.5181   1.5328   1.5403   1.5425   1.5474   1.5532   1.5603   1.5678
     1.5745   1.5839   1.5901   1.5958   1.6020   1.6057   1.6187   1.6191
     1.6234   1.6336   1.6441   1.6503   1.6568   1.6595   1.6643   1.6738
     1.6788   1.6875   1.6887   1.6984   1.7085   1.7119   1.7232   1.7303
     1.7307   1.7355   1.7414   1.7453   1.7562   1.7670   1.7710   1.7790
     1.7812   1.7941   1.7976   1.7996   1.8100   1.8165   1.8217   1.8244
     1.8312   1.8346   1.8450   1.8506   1.8563   1.8599   1.8683   1.8740
     1.8864   1.8903   1.8938   1.9000   1.9074   1.9187   1.9225   1.9242
     1.9361   1.9407   1.9435   1.9580   1.9634   1.9716   1.9833   1.9915
     1.9981   2.0000   2.0077   2.0105   2.0157   2.0231   2.0315   2.0421
     2.0497   2.0550   2.0619   2.0645   2.0781   2.0808   2.0906   2.0982
     2.1057   2.1110   2.1216   2.1258   2.1314   2.1354   2.1433   2.1518
     2.1606   2.1732   2.1934   2.1968   2.1993   2.2118   2.2212   2.2310
     2.2449   2.2544   2.2565   2.2765   2.2826   2.2881   2.2933   2.2963
     2.3149   2.3198   2.3280   2.3334   2.3486   2.3506   2.3734   2.3833
     2.4040   2.4116   2.4249   2.4437   2.4636   2.4690   2.4804   2.4988
     2.5087   2.5170   2.5275   2.5458   2.5562   2.5742   2.5859   2.5999
     2.6155   2.6526   2.6664   2.6748   2.7073   2.7508   2.7592   2.7828
     2.8050   2.8130   2.8288   2.8730   2.9422   2.9761   3.0553   3.1376
     3.2218   3.2721   3.2899   3.4792   4.7849   5.5552   5.6148   5.8718
     6.1045   6.1506   6.1794   6.1897   6.2837   6.3231   6.3837   6.4315
     6.4594   6.5107   6.5129   6.5222   6.5559   6.5724   6.5952   6.6033
     6.6239   6.6399   6.6594   6.6697   6.6737   6.6955   6.7014   6.7204
     6.7379   6.7566   6.7783   6.7821   6.7862   6.7924   6.8233   6.8244
     6.8463   6.8549   6.8581   6.8681   6.8833   6.8898   6.8941   6.9048
     6.9171   6.9226   6.9326   6.9463   6.9537   6.9590   6.9671   6.9756
     6.9780   6.9836   6.9874   6.9971   7.0054   7.0180   7.0205   7.0278
     7.0325   7.0379   7.0475   7.0529   7.0555   7.0597   7.0682   7.0710
     7.0794   7.0843   7.0890   7.0926   7.0935   7.0978   7.1033   7.1163
     7.1177   7.1244   7.1283   7.1305   7.1407   7.1469   7.1478   7.1522
     7.1574   7.1589   7.1630   7.1672   7.1754   7.1786   7.1860   7.1933
     7.1945   7.1980   7.2045   7.2083   7.2092   7.2108   7.2142   7.2182
     7.2214   7.2241   7.2275   7.2295   7.2366   7.2416   7.2482   7.2533
     7.2545   7.2562   7.2612   7.2649   7.2670   7.2701   7.2743   7.2832
     7.2898   7.2907   7.2982   7.2996   7.3029   7.3073   7.3110   7.3164
     7.3176   7.3216   7.3223   7.3279   7.3283   7.3334   7.3374   7.3385
     7.3444   7.3492   7.3514   7.3529   7.3565   7.3625   7.3699   7.3745
     7.3771   7.3799   7.3870   7.3914   7.3929   7.3957   7.4006   7.4030
     7.4113   7.4150   7.4168   7.4199   7.4254   7.4303   7.4337   7.4370
     7.4406   7.4472   7.4512   7.4529   7.4543   7.4599   7.4659   7.4676
     7.4694   7.4790   7.4817   7.4853   7.4910   7.4991   7.5037   7.5081
     7.5125   7.5166   7.5242   7.5307   7.5370   7.5412   7.5481   7.5571

     the Fermi energy is     4.2634 ev

!    total energy              =  -10980.26856126 Ry
     estimated scf accuracy    <          6.6E-10 Ry
     smearing contrib. (-TS)   =       0.00000000 Ry
     internal energy E=F+TS    =  -10980.26856126 Ry

     The total energy is F=E-TS. E is the sum of the following terms:
     one-electron contribution = -262688.82141726 Ry
     hartree contribution      =  131919.86936724 Ry
     xc contribution           =   -2580.51025469 Ry
     ewald contribution        =  122369.21816276 Ry
     electric field correction =      -0.02441931 Ry

     convergence has been achieved in  25 iterations

     Forces acting on atoms (cartesian axes, Ry/au):

     atom    1 type  1   force =    -0.00083717   -0.00037026    0.00248901
     atom    2 type  1   force =     0.00030485   -0.00076882    0.00229921
     atom    3 type  1   force =     0.00101252   -0.00023374    0.00230485
     atom    4 type  1   force =     0.00039119    0.00046824    0.00205166
     atom    5 type  1   force =    -0.00077345    0.00030398    0.00156198
     atom    6 type  1   force =    -0.00050891    0.00012005    0.00134331
     atom    7 type  1   force =     0.00054143   -0.00033946    0.00130568
     atom    8 type  1   force =    -0.00085587   -0.00027799    0.00203073
     atom    9 type  1   force =     0.00065826    0.00038885    0.00180106
     atom   10 type  1   force =    -0.00033445   -0.00007362    0.00255462
     atom   11 type  1   force =     0.00045218   -0.00004556    0.00142857
     atom   12 type  1   force =    -0.00027261   -0.00068351    0.00189658
     atom   13 type  1   force =     0.00004317    0.00027881    0.00200908
     atom   14 type  1   force =    -0.00016024    0.00053221    0.00242131
     atom   15 type  1   force =     0.00041421   -0.00059283    0.00199654
     atom   16 type  1   force =     0.00039066    0.00022247    0.00241069
     atom   17 type  1   force =    -0.00078732    0.00016996    0.00258749
     atom   18 type  1   force =     0.00027471   -0.00007420    0.00186228
     atom   19 type  1   force =     0.00028312   -0.00040031    0.00175734
     atom   20 type  1   force =     0.00016487    0.00024432    0.00162507
     atom   21 type  1   force =     0.00018996   -0.00045952    0.00140294
     atom   22 type  1   force =     0.00011822    0.00077673    0.00233051
     atom   23 type  1   force =    -0.00024406   -0.00079149    0.00226462
     atom   24 type  1   force =    -0.00011779    0.00029231    0.00281572
     atom   25 type  1   force =     0.00016231   -0.00007957    0.00177488
     atom   26 type  1   force =     0.00052571    0.00046006    0.00183734
     atom   27 type  1   force =    -0.00066252    0.00017075    0.00233950
     atom   28 type  1   force =    -0.00053892   -0.00055444    0.00199381
     atom   29 type  1   force =     0.00004051   -0.00063292    0.00233365
     atom   30 type  1   force =     0.00057244   -0.00026947    0.00188479
     atom   31 type  1   force =    -0.00011573    0.00071697    0.00278419
     atom   32 type  1   force =    -0.00008675   -0.00020230    0.00194085
     atom   33 type  1   force =     0.00030516   -0.00019146    0.00156824
     atom   34 type  1   force =    -0.00007126   -0.00052336    0.00182056
     atom   35 type  1   force =     0.00022967    0.00012214    0.00146493
     atom   36 type  1   force =    -0.00078309   -0.00021396    0.00206157
     atom   37 type  1   force =     0.00070003    0.00044145    0.00223731
     atom   38 type  1   force =    -0.00040960   -0.00006661    0.00289333
     atom   39 type  1   force =     0.00013195   -0.00011492    0.00191506
     atom   40 type  1   force =    -0.00018571   -0.00085919    0.00192354
     atom   41 type  1   force =     0.00037149    0.00078613    0.00205841
     atom   42 type  1   force =    -0.00028473    0.00064030    0.00244588
     atom   43 type  1   force =     0.00048693   -0.00052111    0.00185747
     atom   44 type  1   force =     0.00057662    0.00022343    0.00223269
     atom   45 type  1   force =    -0.00088426    0.00012297    0.00252286
     atom   46 type  1   force =     0.00014193    0.00008574    0.00203963
     atom   47 type  1   force =     0.00030143   -0.00041053    0.00160022
     atom   48 type  1   force =     0.00027798    0.00019403    0.00187549
     atom   49 type  1   force =     0.00015594   -0.00052971    0.00163466
     atom   50 type  1   force =     0.00015816    0.00078317    0.00238599
     atom   51 type  1   force =    -0.00039616   -0.00086738    0.00235202
     atom   52 type  1   force =    -0.00017033    0.00034635    0.00278058
     atom   53 type  1   force =     0.00010837   -0.00011382    0.00178074
     atom   54 type  1   force =     0.00056095    0.00062504    0.00150190
     atom   55 type  1   force =    -0.00056466    0.00012314    0.00246547
     atom   56 type  1   force =    -0.00043576   -0.00056080    0.00192936
     atom   57 type  1   force =    -0.00002333   -0.00050535    0.00235533
     atom   58 type  1   force =     0.00073207   -0.00025942    0.00181020
     atom   59 type  1   force =    -0.00010624    0.00066271    0.00269796
     atom   60 type  1   force =    -0.00008668   -0.00015416    0.00193923
     atom   61 type  1   force =     0.00027930   -0.00014147    0.00181798
     atom   62 type  1   force =    -0.00011456   -0.00057194    0.00168738
     atom   63 type  1   force =     0.00040006    0.00017422    0.00151891
     atom   64 type  1   force =    -0.00070980   -0.00037565    0.00186260
     atom   65 type  1   force =     0.00043787    0.00068705    0.00210197
     atom   66 type  1   force =    -0.00060031   -0.00006572    0.00293059
     atom   67 type  1   force =     0.00015784   -0.00038495    0.00212122
     atom   68 type  1   force =     0.00001661   -0.00095112    0.00207107
     atom   69 type  1   force =     0.00031887    0.00061930    0.00211853
     atom   70 type  1   force =    -0.00032221    0.00050994    0.00247333
     atom   71 type  1   force =    -0.00021874   -0.00007220    0.00229744
     atom   72 type  1   force =     0.00096303    0.00042303    0.00248459
     atom   73 type  1   force =    -0.00086496   -0.00027715    0.00272260
     atom   74 type  1   force =     0.00028181   -0.00004212    0.00176861
     atom   75 type  1   force =     0.00055578   -0.00049554    0.00150001
     atom   76 type  1   force =    -0.00021314   -0.00043551    0.00187755
     atom   77 type  1   force =     0.00066900   -0.00003196    0.00146331
     atom   78 type  1   force =    -0.00070792    0.00072741    0.00145870
     atom   79 type  1   force =     0.00047048   -0.00055108    0.00192432
     atom   80 type  1   force =     0.00053302   -0.00014484    0.00249074
     atom   81 type  1   force =     0.00006204    0.00010975    0.00214238
     atom   82 type  1   force =     0.00037329    0.00088080    0.00256121
     atom   83 type  1   force =    -0.00036338   -0.00056826    0.00325672
     atom   84 type  1   force =    -0.00085875   -0.00091309    0.00307487
     atom   85 type  2   force =     0.00201809    0.00163171    0.00071682
     atom   86 type  2   force =     0.00291475   -0.00241176    0.00440247
     atom   87 type  2   force =    -0.00278776    0.00119267    0.00157596
     atom   88 type  2   force =    -0.00007038   -0.00260494    0.00833005
     atom   89 type  2   force =     0.00025881    0.00248712    0.00909041
     atom   90 type  2   force =    -0.00126521    0.00020387    0.00815364
     atom   91 type  2   force =     0.00044266   -0.00164943    0.00602174
     atom   92 type  2   force =    -0.00094335   -0.00084385    0.00901379
     atom   93 type  2   force =     0.00059120    0.00036776    0.00800513
     atom   94 type  2   force =     0.00051914    0.00040940    0.00856969
     atom   95 type  2   force =    -0.00086332    0.00015799    0.00697405
     atom   96 type  2   force =     0.00057139    0.00067918    0.00905244
     atom   97 type  2   force =     0.00046462    0.00035724    0.00698633
     atom   98 type  2   force =    -0.00009303    0.00090246    0.00732633
     atom   99 type  2   force =     0.00031180   -0.00124753    0.00673041
     atom  100 type  2   force =     0.00024241   -0.00077970    0.00796026
     atom  101 type  2   force =    -0.00025194    0.00110842    0.00718112
     atom  102 type  2   force =    -0.00020243   -0.00050100    0.00888149
     atom  103 type  2   force =    -0.00080222   -0.00083920    0.00692814
     atom  104 type  2   force =    -0.00064668   -0.00042301    0.00743566
     atom  105 type  2   force =     0.00127863   -0.00016445    0.00661416
     atom  106 type  2   force =     0.00033669    0.00044912    0.00824912
     atom  107 type  2   force =    -0.00099004   -0.00029562    0.00754804
     atom  108 type  2   force =     0.00031461    0.00079414    0.00870808
     atom  109 type  2   force =     0.00050114    0.00029617    0.00747899
     atom  110 type  2   force =     0.00009301    0.00074130    0.00765687
     atom  111 type  2   force =     0.00033351   -0.00103828    0.00646025
     atom  112 type  2   force =    -0.00001748   -0.00078402    0.00661989
     atom  113 type  2   force =     0.00044850    0.00106956    0.00649785
     atom  114 type  2   force =    -0.00025250   -0.00063826    0.01069542
     atom  115 type  2   force =    -0.00059607   -0.00017244    0.00717487
     atom  116 type  2   force =    -0.00111617   -0.00084201    0.00844962
     atom  117 type  2   force =     0.00130656   -0.00026403    0.00882648
     atom  118 type  2   force =    -0.00104433   -0.00333012    0.01012278
     atom  119 type  2   force =    -0.00092940    0.00072071    0.00845415
     atom  120 type  2   force =    -0.00047431    0.00091073    0.01432323
     atom  121 type  3   force =     0.01207276   -0.00043278   -0.00156293
     atom  122 type  3   force =    -0.00637912    0.00543880   -0.00138293
     atom  123 type  3   force =     0.01052641    0.00042993    0.00776557
     atom  124 type  3   force =    -0.00979087   -0.00377706    0.00725104
     atom  125 type  3   force =     0.00069171    0.00296507    0.00944978
     atom  126 type  3   force =    -0.00103035   -0.00373814    0.00997874
     atom  127 type  3   force =     0.00032536    0.00074389    0.00789059
     atom  128 type  3   force =    -0.00135960    0.00271917    0.00784305
     atom  129 type  3   force =    -0.00039699   -0.00063494    0.00730342
     atom  130 type  3   force =    -0.00041224    0.00061080    0.00786111
     atom  131 type  3   force =    -0.00013237    0.00153177    0.01045608
     atom  132 type  3   force =    -0.00165998   -0.00116240    0.01104451
     atom  133 type  3   force =     0.00102999    0.00142081    0.00961283
     atom  134 type  3   force =    -0.00115912   -0.00207880    0.00979327
     atom  135 type  3   force =     0.00070879   -0.00010374    0.00765975
     atom  136 type  3   force =    -0.00087404   -0.00025296    0.00807417
     atom  137 type  3   force =     0.00189041   -0.00018250    0.00876779
     atom  138 type  3   force =     0.00010566   -0.00006190    0.00825958
     atom  139 type  3   force =    -0.00027283    0.00193146    0.00918836
     atom  140 type  3   force =    -0.00115940   -0.00061123    0.01015861
     atom  141 type  3   force =    -0.00802584    0.00952989    0.02405323
     atom  142 type  3   force =     0.00411683   -0.00162407    0.02598386
     atom  143 type  3   force =     0.00083745    0.00733728    0.01223281
     atom  144 type  3   force =    -0.00189306   -0.00413144    0.01156567
     atom  145 type  4   force =     0.00218806   -0.00161853    0.00008683
     atom  146 type  4   force =    -0.00396881   -0.00036852   -0.00145232
     atom  147 type  4   force =     0.00694417   -0.00156950    0.00084487
     atom  148 type  4   force =    -0.00772917    0.00384953    0.00136932
     atom  149 type  4   force =     0.00218607   -0.00443242   -0.00084020
     atom  150 type  4   force =    -0.00268155    0.00878726    0.00156602
     atom  151 type  4   force =    -0.01153987    0.01056757    0.00069189
     atom  152 type  4   force =     0.00932439   -0.01030037   -0.00122006
     atom  153 type  4   force =    -0.01039353   -0.01261276   -0.00182321
     atom  154 type  4   force =     0.00554088    0.00537017   -0.00355578
     atom  155 type  4   force =     0.00146978    0.00067218    0.00001406
     atom  156 type  4   force =    -0.00162213   -0.00089271   -0.00013586
     atom  157 type  4   force =     0.00885360    0.00658952   -0.00033296
     atom  158 type  4   force =    -0.01029833   -0.00486754   -0.00602653
     atom  159 type  4   force =    -0.00423184   -0.00254530   -0.00403768
     atom  160 type  4   force =     0.00423661    0.00182506   -0.00537608
     atom  161 type  4   force =     0.00324812    0.00031107   -0.00228985
     atom  162 type  4   force =    -0.00305737   -0.00000717   -0.00408080
     atom  163 type  4   force =     0.00209058   -0.00283664   -0.00993772
     atom  164 type  4   force =    -0.00128332    0.00271691   -0.00895023
     atom  165 type  4   force =     0.00511197   -0.00005061   -0.00685813
     atom  166 type  4   force =    -0.00394829    0.00099932   -0.00695770
     atom  167 type  4   force =     0.00361735   -0.00104223   -0.01152620
     atom  168 type  4   force =    -0.00115197    0.00132896   -0.01081684
     atom  169 type  4   force =     0.00209998   -0.00091002    0.00065488
     atom  170 type  4   force =    -0.00247664    0.00187974    0.00161355
     atom  171 type  4   force =     0.00134270   -0.00392740    0.00139727
     atom  172 type  4   force =    -0.00126805    0.00421988    0.00045196
     atom  173 type  4   force =     0.00485943   -0.00006337   -0.00070674
     atom  174 type  4   force =    -0.00555942    0.00037302   -0.00018461
     atom  175 type  4   force =     0.00507155   -0.00298539   -0.00170348
     atom  176 type  4   force =    -0.00506707    0.00340930   -0.00296586
     atom  177 type  4   force =     0.00223866    0.00505035   -0.00227851
     atom  178 type  4   force =    -0.00313047   -0.00718173   -0.00260416
     atom  179 type  4   force =    -0.00136601   -0.00378205   -0.00223102
     atom  180 type  4   force =     0.00135517    0.00512738   -0.00170047
     atom  181 type  4   force =    -0.00284590   -0.00822406   -0.00532906
     atom  182 type  4   force =     0.00335231    0.00833504   -0.00637447
     atom  183 type  4   force =     0.00217158    0.00638781   -0.00702670
     atom  184 type  4   force =    -0.00239313   -0.00682659   -0.00656681
     atom  185 type  4   force =    -0.00557214    0.00379058   -0.00685795
     atom  186 type  4   force =     0.00672981   -0.00568567   -0.00780909
     atom  187 type  4   force =     0.00582799   -0.00111262   -0.00922921
     atom  188 type  4   force =    -0.00613351    0.00065776   -0.00898640
     atom  189 type  4   force =     0.00249017   -0.00564328   -0.00872449
     atom  190 type  4   force =    -0.00136527    0.00533284   -0.00898854
     atom  191 type  4   force =     0.00321646   -0.00181823   -0.01197064
     atom  192 type  4   force =    -0.00279270    0.00096675   -0.01153344
     atom  193 type  4   force =     0.00102953   -0.00136023    0.00028579
     atom  194 type  4   force =    -0.00147695    0.00159553    0.00057040
     atom  195 type  4   force =     0.00415365   -0.00010362    0.00077138
     atom  196 type  4   force =    -0.00430034    0.00029593    0.00014999
     atom  197 type  4   force =     0.00148945   -0.00411324   -0.00090583
     atom  198 type  4   force =    -0.00156506    0.00427898   -0.00065388
     atom  199 type  4   force =    -0.00570591    0.00440077   -0.00194013
     atom  200 type  4   force =     0.00453654   -0.00422217   -0.00175659
     atom  201 type  4   force =    -0.00500802   -0.00431166   -0.00242450
     atom  202 type  4   force =     0.00464157    0.00426151   -0.00233489
     atom  203 type  4   force =     0.00519173    0.00459848   -0.00174396
     atom  204 type  4   force =    -0.00509154   -0.00396993   -0.00211580
     atom  205 type  4   force =     0.00644388    0.00456682   -0.00535070
     atom  206 type  4   force =    -0.00613369   -0.00442121   -0.00551819
     atom  207 type  4   force =    -0.00611696   -0.00435452   -0.00676840
     atom  208 type  4   force =     0.00598408    0.00489480   -0.00635561
     atom  209 type  4   force =     0.00597287   -0.00361087   -0.00662856
     atom  210 type  4   force =    -0.00527684    0.00382226   -0.00658853
     atom  211 type  4   force =     0.00334542   -0.00618777   -0.00991971
     atom  212 type  4   force =    -0.00261844    0.00563789   -0.00832257
     atom  213 type  4   force =     0.00670174   -0.00082929   -0.00944896
     atom  214 type  4   force =    -0.00551744   -0.00002979   -0.00888146
     atom  215 type  4   force =     0.00297517   -0.00233080   -0.01318336
     atom  216 type  4   force =    -0.00186407    0.00245809   -0.01181404
     atom  217 type  4   force =     0.00203574   -0.00041716    0.00069370
     atom  218 type  4   force =    -0.00246069    0.00152163    0.00147072
     atom  219 type  4   force =     0.00125572   -0.00347622    0.00013066
     atom  220 type  4   force =    -0.00205928    0.00418412    0.00071037
     atom  221 type  4   force =     0.00428459    0.00013923   -0.00099735
     atom  222 type  4   force =    -0.00511296    0.00041086   -0.00030759
     atom  223 type  4   force =     0.00488200   -0.00303545   -0.00202548
     atom  224 type  4   force =    -0.00531894    0.00344083   -0.00246958
     atom  225 type  4   force =     0.00311954    0.00659198   -0.00249189
     atom  226 type  4   force =    -0.00291178   -0.00649498   -0.00264582
     atom  227 type  4   force =    -0.00216463   -0.00550344   -0.00203946
     atom  228 type  4   force =     0.00212941    0.00605219   -0.00217792
     atom  229 type  4   force =    -0.00246074   -0.00756560   -0.00559487
     atom  230 type  4   force =     0.00278053    0.00817918   -0.00611416
     atom  231 type  4   force =     0.00218774    0.00655168   -0.00645248
     atom  232 type  4   force =    -0.00237729   -0.00659858   -0.00626486
     atom  233 type  4   force =    -0.00600754    0.00380280   -0.00678322
     atom  234 type  4   force =     0.00601904   -0.00508363   -0.00734457
     atom  235 type  4   force =     0.00635680   -0.00099564   -0.00933071
     atom  236 type  4   force =    -0.00619799    0.00082245   -0.00863514
     atom  237 type  4   force =     0.00264746   -0.00588388   -0.00885822
     atom  238 type  4   force =    -0.00198273    0.00545604   -0.00920833
     atom  239 type  4   force =     0.00302912   -0.00171730   -0.01194922
     atom  240 type  4   force =    -0.00277976    0.00104965   -0.01139479
     atom  241 type  4   force =     0.00145223   -0.00169457    0.00095830
     atom  242 type  4   force =    -0.00189286    0.00200898    0.00130291
     atom  243 type  4   force =     0.00360970    0.00013476   -0.00026028
     atom  244 type  4   force =    -0.00416339    0.00068937    0.00010975
     atom  245 type  4   force =     0.00144815   -0.00466747   -0.00064745
     atom  246 type  4   force =    -0.00151276    0.00438529   -0.00069328
     atom  247 type  4   force =    -0.00522943    0.00478587   -0.00128629
     atom  248 type  4   force =     0.00415250   -0.00407587   -0.00182934
     atom  249 type  4   force =    -0.00465207   -0.00446392   -0.00233531
     atom  250 type  4   force =     0.00440780    0.00434130   -0.00169445
     atom  251 type  4   force =     0.00511333    0.00458594   -0.00195834
     atom  252 type  4   force =    -0.00569303   -0.00443627   -0.00243106
     atom  253 type  4   force =     0.00689974    0.00415109   -0.00578104
     atom  254 type  4   force =    -0.00620549   -0.00423001   -0.00560424
     atom  255 type  4   force =    -0.00649105   -0.00450968   -0.00677813
     atom  256 type  4   force =     0.00580792    0.00364162   -0.00715921
     atom  257 type  4   force =     0.00634703   -0.00340961   -0.00659122
     atom  258 type  4   force =    -0.00573057    0.00407979   -0.00728627
     atom  259 type  4   force =     0.00351000   -0.00570372   -0.01018094
     atom  260 type  4   force =    -0.00240888    0.00505071   -0.00907344
     atom  261 type  4   force =     0.00668786   -0.00043113   -0.00907403
     atom  262 type  4   force =    -0.00638002    0.00007762   -0.01000530
     atom  263 type  4   force =     0.00266156   -0.00184680   -0.01358864
     atom  264 type  4   force =    -0.00139189    0.00185308   -0.01108903
     atom  265 type  4   force =    -0.00042813   -0.00072253   -0.00274768
     atom  266 type  4   force =     0.00024979    0.00038688   -0.00310813
     atom  267 type  4   force =     0.00116330   -0.00230112   -0.00112957
     atom  268 type  4   force =    -0.00131852    0.00296764   -0.00142952
     atom  269 type  4   force =     0.00141640    0.00104323   -0.00249675
     atom  270 type  4   force =    -0.00249305   -0.00061568   -0.00134478
     atom  271 type  4   force =     0.00295392   -0.00285390   -0.00411059
     atom  272 type  4   force =    -0.00547988    0.00346906   -0.00432784
     atom  273 type  4   force =     0.00281839    0.00751562   -0.00120331
     atom  274 type  4   force =    -0.00374073   -0.00849094   -0.00154511
     atom  275 type  4   force =    -0.00110975   -0.00201594   -0.00270260
     atom  276 type  4   force =     0.00188538    0.00420995   -0.00347885
     atom  277 type  4   force =    -0.00596468   -0.00728637   -0.00305310
     atom  278 type  4   force =     0.00521194    0.00700748   -0.00431043
     atom  279 type  4   force =    -0.00297529    0.00278661   -0.00525135
     atom  280 type  4   force =     0.00113602   -0.00817348   -0.00864945
     atom  281 type  4   force =    -0.00419712    0.00691150   -0.00771595
     atom  282 type  4   force =     0.00620686   -0.00764056   -0.00936569
     atom  283 type  4   force =     0.00972448    0.00122937   -0.00711619
     atom  284 type  4   force =    -0.00746962    0.00190187   -0.00703111
     atom  285 type  4   force =     0.00834595   -0.00606814   -0.01410044
     atom  286 type  4   force =    -0.00303008    0.00873608   -0.01161382
     atom  287 type  4   force =     0.01634887   -0.00684115   -0.02129607
     atom  288 type  4   force =    -0.01296257   -0.00229815   -0.02341868
     The non-local contrib.  to forces
     atom    1 type  1   force =    -0.05709178   -0.01987308   -0.08751072
     atom    2 type  1   force =    -0.01924527   -0.03327823   -0.10098286
     atom    3 type  1   force =     0.05726113   -0.02917030   -0.07788651
     atom    4 type  1   force =     0.01012905    0.02204411   -0.10042024
     atom    5 type  1   force =    -0.03968931   -0.00078004   -0.06970543
     atom    6 type  1   force =    -0.09169547   -0.00378925   -0.01501601
     atom    7 type  1   force =     0.06297007    0.00072443   -0.02289114
     atom    8 type  1   force =    -0.02120895   -0.01512889    0.05095526
     atom    9 type  1   force =     0.02742191    0.04285429    0.00767542
     atom   10 type  1   force =     0.00028136    0.06492366   -0.00233906
     atom   11 type  1   force =    -0.00498414   -0.01367778   -0.03162433
     atom   12 type  1   force =    -0.02904283   -0.03424804   -0.04057038
     atom   13 type  1   force =     0.04646801    0.00245564   -0.00788166
     atom   14 type  1   force =    -0.04986852   -0.00168636    0.02038473
     atom   15 type  1   force =     0.01090924   -0.05491048   -0.02827757
     atom   16 type  1   force =     0.02049061    0.05086261    0.03089830
     atom   17 type  1   force =    -0.04253950   -0.01996979    0.03653100
     atom   18 type  1   force =     0.00296388   -0.00792207   -0.01094828
     atom   19 type  1   force =     0.06328463   -0.00026054   -0.02232843
     atom   20 type  1   force =     0.00003439    0.05871569   -0.00345084
     atom   21 type  1   force =    -0.00501671   -0.04229740   -0.05833162
     atom   22 type  1   force =    -0.00731732    0.06536744    0.01783056
[...]
     atom   55 type  1   force =     0.00000041    0.00000096    0.00000047
     atom   56 type  1   force =    -0.00000027    0.00000041   -0.00000001
     atom   57 type  1   force =    -0.00000044    0.00000026   -0.00000007
     atom   58 type  1   force =    -0.00000020   -0.00000053   -0.00000021
     atom   59 type  1   force =     0.00000064   -0.00000033   -0.00000017
     atom   60 type  1   force =     0.00000005    0.00000041   -0.00000069
     atom   61 type  1   force =     0.00000007   -0.00000035   -0.00000080
     atom   62 type  1   force =    -0.00000014   -0.00000036   -0.00000049
     atom   63 type  1   force =     0.00000006    0.00000019   -0.00000046
     atom   64 type  1   force =    -0.00000012   -0.00000042   -0.00000084
     atom   65 type  1   force =    -0.00000003    0.00000013   -0.00000093
     atom   66 type  1   force =     0.00000007   -0.00000056   -0.00000124
     atom   67 type  1   force =     0.00000006   -0.00000017   -0.00000163
     atom   68 type  1   force =     0.00000042    0.00000001   -0.00000153
     atom   69 type  1   force =    -0.00000055   -0.00000014   -0.00000183
     atom   70 type  1   force =     0.00000004    0.00000011   -0.00000186
     atom   71 type  1   force =     0.00000069    0.00000036   -0.00000186
     atom   72 type  1   force =    -0.00000024    0.00000018   -0.00000142
     atom   73 type  1   force =     0.00000021    0.00000085   -0.00000150
     atom   74 type  1   force =    -0.00000027   -0.00000032   -0.00000216
     atom   75 type  1   force =     0.00000009    0.00000024   -0.00000221
     atom   76 type  1   force =     0.00000038   -0.00000041   -0.00000190
     atom   77 type  1   force =    -0.00000037    0.00000019   -0.00000200
     atom   78 type  1   force =    -0.00000016    0.00000066   -0.00000164
     atom   79 type  1   force =     0.00000021   -0.00000168   -0.00000199
     atom   80 type  1   force =    -0.00000025   -0.00000009   -0.00000150
     atom   81 type  1   force =     0.00000035   -0.00000060   -0.00000099
     atom   82 type  1   force =    -0.00000032    0.00000090   -0.00000111
     atom   83 type  1   force =    -0.00000029    0.00000068    0.00000001
     atom   84 type  1   force =    -0.00000024   -0.00000071   -0.00000049
     atom   85 type  2   force =     0.00000320   -0.00000493   -0.00000448
     atom   86 type  2   force =    -0.00000196    0.00000379    0.00000633
     atom   87 type  2   force =     0.00000029    0.00000311    0.00000840
     atom   88 type  2   force =     0.00000289    0.00001463    0.00001211
     atom   89 type  2   force =    -0.00000012   -0.00000442    0.00001132
     atom   90 type  2   force =    -0.00000308    0.00000483    0.00000956
     atom   91 type  2   force =     0.00000365   -0.00000633    0.00000506
     atom   92 type  2   force =     0.00000487    0.00000089    0.00000805
     atom   93 type  2   force =    -0.00000874   -0.00001128    0.00000552
     atom   94 type  2   force =    -0.00000068   -0.00000103    0.00000238
     atom   95 type  2   force =    -0.00000151    0.00000275    0.00000098
     atom   96 type  2   force =    -0.00000118   -0.00000148    0.00000049
     atom   97 type  2   force =     0.00000145    0.00000141   -0.00000122
     atom   98 type  2   force =     0.00000180   -0.00000227    0.00000114
     atom   99 type  2   force =     0.00000036    0.00000260    0.00000081
     atom  100 type  2   force =    -0.00000059   -0.00000012   -0.00000376
     atom  101 type  2   force =    -0.00000031   -0.00000112   -0.00000473
     atom  102 type  2   force =     0.00000018   -0.00000015   -0.00000301
     atom  103 type  2   force =    -0.00000049    0.00000108   -0.00000407
     atom  104 type  2   force =     0.00000047    0.00000039   -0.00000032
     atom  105 type  2   force =     0.00000074    0.00000054   -0.00000046
     atom  106 type  2   force =    -0.00000108   -0.00000078    0.00000138
     atom  107 type  2   force =     0.00000186   -0.00000052    0.00000203
     atom  108 type  2   force =     0.00000074    0.00000051   -0.00000076
     atom  109 type  2   force =    -0.00000020   -0.00000111   -0.00000062
     atom  110 type  2   force =    -0.00000054   -0.00000138   -0.00000221
     atom  111 type  2   force =    -0.00000018    0.00000249   -0.00000114
     atom  112 type  2   force =     0.00000119    0.00000018   -0.00000425
     atom  113 type  2   force =    -0.00000090    0.00000072   -0.00000387
     atom  114 type  2   force =    -0.00000052    0.00000178   -0.00000677
     atom  115 type  2   force =    -0.00000021   -0.00000103   -0.00000636
     atom  116 type  2   force =     0.00000077   -0.00000109   -0.00000708
     atom  117 type  2   force =     0.00000003   -0.00000034   -0.00000960
     atom  118 type  2   force =     0.00000092    0.00000232   -0.00000349
     atom  119 type  2   force =    -0.00000213   -0.00000016   -0.00000391
     atom  120 type  2   force =     0.00000156    0.00000099    0.00000008
     atom  121 type  3   force =     0.00001700    0.00001130    0.00001902
     atom  122 type  3   force =    -0.00001620    0.00001023    0.00002432
     atom  123 type  3   force =     0.00001028   -0.00000368    0.00001277
     atom  124 type  3   force =    -0.00001604   -0.00001870    0.00001292
     atom  125 type  3   force =    -0.00000168    0.00000511   -0.00000404
     atom  126 type  3   force =     0.00000895   -0.00000404   -0.00001213
     atom  127 type  3   force =    -0.00000132    0.00000136    0.00000911
     atom  128 type  3   force =    -0.00000471   -0.00000292    0.00000358
     atom  129 type  3   force =     0.00000043   -0.00000206   -0.00000278
     atom  130 type  3   force =    -0.00000118   -0.00000021   -0.00000109
     atom  131 type  3   force =    -0.00000065    0.00000076   -0.00000693
     atom  132 type  3   force =     0.00000045    0.00000107   -0.00000689
     atom  133 type  3   force =    -0.00000088    0.00000151    0.00000229
     atom  134 type  3   force =    -0.00000244   -0.00000127    0.00000406
     atom  135 type  3   force =    -0.00000003    0.00000230    0.00000531
     atom  136 type  3   force =     0.00000123   -0.00000031    0.00000339
     atom  137 type  3   force =     0.00000102    0.00000249   -0.00000121
     atom  138 type  3   force =    -0.00000110    0.00000102   -0.00000175
     atom  139 type  3   force =     0.00000136   -0.00000276   -0.00000324
     atom  140 type  3   force =    -0.00000139   -0.00000101   -0.00000350
     atom  141 type  3   force =     0.00000266    0.00000037   -0.00000915
     atom  142 type  3   force =    -0.00000522   -0.00000071   -0.00001338
     atom  143 type  3   force =    -0.00000027   -0.00000015   -0.00000517
     atom  144 type  3   force =     0.00000357   -0.00000139   -0.00000789
     atom  145 type  4   force =     0.00000274    0.00000052    0.00000010
     atom  146 type  4   force =    -0.00000326   -0.00000565    0.00000203
     atom  147 type  4   force =     0.00000080    0.00000243   -0.00000022
     atom  148 type  4   force =    -0.00000278    0.00000175    0.00000122
     atom  149 type  4   force =    -0.00000565   -0.00000220    0.00000281
     atom  150 type  4   force =     0.00000568   -0.00000100    0.00000515
     atom  151 type  4   force =     0.00000807    0.00000334    0.00000612
     atom  152 type  4   force =    -0.00000797    0.00000170    0.00001220
     atom  153 type  4   force =     0.00001102    0.00000500    0.00001086
     atom  154 type  4   force =    -0.00000482    0.00000250    0.00000754
     atom  155 type  4   force =    -0.00000003   -0.00000361    0.00000431
     atom  156 type  4   force =     0.00000078   -0.00000127    0.00000265
     atom  157 type  4   force =    -0.00000181   -0.00000760    0.00000862
     atom  158 type  4   force =     0.00000254   -0.00000187    0.00000668
     atom  159 type  4   force =    -0.00000572    0.00000149    0.00000867
     atom  160 type  4   force =     0.00000198    0.00000256    0.00000881
     atom  161 type  4   force =     0.00000392    0.00000319    0.00000826
     atom  162 type  4   force =    -0.00000511    0.00000261    0.00000869
     atom  163 type  4   force =     0.00000460    0.00000175    0.00000743
     atom  164 type  4   force =    -0.00000788   -0.00000976    0.00000768
     atom  165 type  4   force =    -0.00000751    0.00000640    0.00000458
     atom  166 type  4   force =     0.00000996    0.00000602    0.00000510
     atom  167 type  4   force =    -0.00000604   -0.00000647    0.00000784
     atom  168 type  4   force =     0.00000519   -0.00000125    0.00000485
     atom  169 type  4   force =     0.00000749   -0.00000224    0.00000076
     atom  170 type  4   force =    -0.00000209    0.00000231    0.00000448
     atom  171 type  4   force =    -0.00000239   -0.00000437    0.00000590
     atom  172 type  4   force =    -0.00000049   -0.00000031    0.00000777
     atom  173 type  4   force =     0.00000408    0.00000396    0.00000182
     atom  174 type  4   force =    -0.00000314   -0.00000203   -0.00000374
     atom  175 type  4   force =    -0.00000253    0.00000112    0.00000439
     atom  176 type  4   force =     0.00000040   -0.00000001    0.00000246
     atom  177 type  4   force =    -0.00000447    0.00000123    0.00000201
     atom  178 type  4   force =     0.00000206    0.00000174    0.00000385
     atom  179 type  4   force =     0.00000072   -0.00000403   -0.00000248
     atom  180 type  4   force =     0.00000125    0.00000142   -0.00000012
     atom  181 type  4   force =    -0.00000144    0.00000177   -0.00000238
     atom  182 type  4   force =     0.00000385    0.00000169   -0.00000300
     atom  183 type  4   force =    -0.00000068   -0.00000115    0.00000204
     atom  184 type  4   force =    -0.00000125   -0.00000106    0.00000165
     atom  185 type  4   force =     0.00000005    0.00000050    0.00000197
     atom  186 type  4   force =    -0.00000154   -0.00000217    0.00000005
     atom  187 type  4   force =     0.00000252   -0.00000132   -0.00000127
     atom  188 type  4   force =    -0.00000075    0.00000119   -0.00000042
     atom  189 type  4   force =    -0.00000041    0.00000085    0.00000198
     atom  190 type  4   force =    -0.00000078   -0.00000025    0.00000114
     atom  191 type  4   force =     0.00000070    0.00000159   -0.00000113
     atom  192 type  4   force =     0.00000103   -0.00000118   -0.00000204
     atom  193 type  4   force =    -0.00000002   -0.00000021   -0.00000058
     atom  194 type  4   force =    -0.00000030    0.00000122    0.00000041
     atom  195 type  4   force =     0.00000142   -0.00000061    0.00000093
     atom  196 type  4   force =    -0.00000067    0.00000012    0.00000162
     atom  197 type  4   force =    -0.00000039   -0.00000132   -0.00000040
     atom  198 type  4   force =     0.00000004    0.00000114   -0.00000087
     atom  199 type  4   force =     0.00000013   -0.00000037   -0.00000016
     atom  200 type  4   force =    -0.00000049   -0.00000055    0.00000033
     atom  201 type  4   force =     0.00000005   -0.00000026   -0.00000043
     atom  202 type  4   force =    -0.00000090   -0.00000039   -0.00000019
     atom  203 type  4   force =     0.00000026    0.00000073   -0.00000156
     atom  204 type  4   force =     0.00000063   -0.00000009   -0.00000199
     atom  205 type  4   force =    -0.00000061    0.00000075   -0.00000164
     atom  206 type  4   force =    -0.00000005   -0.00000019   -0.00000118
     atom  207 type  4   force =     0.00000097   -0.00000079   -0.00000065
     atom  208 type  4   force =    -0.00000017    0.00000050   -0.00000115
     atom  209 type  4   force =    -0.00000111   -0.00000127   -0.00000105
     atom  210 type  4   force =     0.00000057    0.00000109   -0.00000094
     atom  211 type  4   force =     0.00000053   -0.00000004   -0.00000162
     atom  212 type  4   force =    -0.00000001    0.00000087   -0.00000123
     atom  213 type  4   force =    -0.00000017   -0.00000063   -0.00000230
     atom  214 type  4   force =     0.00000027   -0.00000089   -0.00000198
     atom  215 type  4   force =    -0.00000046   -0.00000137   -0.00000141
     atom  216 type  4   force =    -0.00000009    0.00000152   -0.00000178
     atom  217 type  4   force =     0.00000032    0.00000011   -0.00000026
     atom  218 type  4   force =    -0.00000134   -0.00000039   -0.00000080
     atom  219 type  4   force =    -0.00000009    0.00000051    0.00000038
     atom  220 type  4   force =     0.00000064    0.00000012    0.00000049
     atom  221 type  4   force =     0.00000047   -0.00000061    0.00000016
     atom  222 type  4   force =    -0.00000060    0.00000043    0.00000009
     atom  223 type  4   force =     0.00000096    0.00000152    0.00000087
     atom  224 type  4   force =    -0.00000088   -0.00000121    0.00000078
     atom  225 type  4   force =     0.00000160   -0.00000075    0.00000045
     atom  226 type  4   force =    -0.00000112    0.00000016    0.00000095
     atom  227 type  4   force =     0.00000056   -0.00000019   -0.00000061
     atom  228 type  4   force =    -0.00000084    0.00000102   -0.00000022
     atom  229 type  4   force =    -0.00000013   -0.00000125    0.00000145
     atom  230 type  4   force =    -0.00000069   -0.00000007    0.00000155
     atom  231 type  4   force =     0.00000121    0.00000029    0.00000036
     atom  232 type  4   force =    -0.00000044   -0.00000004    0.00000054
     atom  233 type  4   force =    -0.00000009    0.00000032    0.00000092
     atom  234 type  4   force =     0.00000107    0.00000101    0.00000043
     atom  235 type  4   force =     0.00000003   -0.00000124    0.00000091
     atom  236 type  4   force =    -0.00000042    0.00000166    0.00000130
     atom  237 type  4   force =    -0.00000017    0.00000045    0.00000096
     atom  238 type  4   force =     0.00000071   -0.00000086    0.00000097
     atom  239 type  4   force =    -0.00000003    0.00000056    0.00000057
     atom  240 type  4   force =    -0.00000062   -0.00000093    0.00000065
     atom  241 type  4   force =     0.00000066   -0.00000119    0.00000100
     atom  242 type  4   force =    -0.00000086   -0.00000001    0.00000048
     atom  243 type  4   force =     0.00000034    0.00000037    0.00000095
     atom  244 type  4   force =    -0.00000089    0.00000018    0.00000032
     atom  245 type  4   force =    -0.00000048   -0.00000139   -0.00000082
     atom  246 type  4   force =     0.00000015    0.00000080   -0.00000051
     atom  247 type  4   force =     0.00000045    0.00000044   -0.00000092
     atom  248 type  4   force =    -0.00000010    0.00000009   -0.00000072
     atom  249 type  4   force =     0.00000001    0.00000096   -0.00000072
     atom  250 type  4   force =    -0.00000004    0.00000011   -0.00000127
     atom  251 type  4   force =     0.00000079   -0.00000018   -0.00000143
     atom  252 type  4   force =    -0.00000107   -0.00000099   -0.00000220
     atom  253 type  4   force =     0.00000038    0.00000025   -0.00000211
     atom  254 type  4   force =    -0.00000022   -0.00000092   -0.00000204
     atom  255 type  4   force =    -0.00000028    0.00000076   -0.00000224
     atom  256 type  4   force =     0.00000029    0.00000051   -0.00000334
     atom  257 type  4   force =     0.00000040    0.00000153   -0.00000239
     atom  258 type  4   force =    -0.00000072    0.00000005   -0.00000275
     atom  259 type  4   force =     0.00000132   -0.00000146   -0.00000296
     atom  260 type  4   force =    -0.00000058    0.00000026   -0.00000292
     atom  261 type  4   force =    -0.00000066    0.00000015   -0.00000323
     atom  262 type  4   force =     0.00000091    0.00000110   -0.00000305
     atom  263 type  4   force =    -0.00000092   -0.00000105   -0.00000439
     atom  264 type  4   force =     0.00000037   -0.00000032   -0.00000377
     atom  265 type  4   force =     0.00000043   -0.00000010   -0.00000203
     atom  266 type  4   force =    -0.00000061   -0.00000009   -0.00000346
     atom  267 type  4   force =     0.00000061   -0.00000057   -0.00000431
     atom  268 type  4   force =     0.00000043   -0.00000087   -0.00000402
     atom  269 type  4   force =     0.00000152    0.00000004   -0.00000380
     atom  270 type  4   force =    -0.00000254   -0.00000035   -0.00000500
     atom  271 type  4   force =    -0.00000165    0.00000064   -0.00000321
     atom  272 type  4   force =     0.00000120    0.00000089   -0.00000282
     atom  273 type  4   force =    -0.00000011   -0.00000005   -0.00000323
     atom  274 type  4   force =     0.00000043    0.00000164   -0.00000287
     atom  275 type  4   force =    -0.00000180   -0.00000186   -0.00000500
     atom  276 type  4   force =     0.00000088    0.00000046   -0.00000383
     atom  277 type  4   force =     0.00000072   -0.00000128   -0.00000315
     atom  278 type  4   force =    -0.00000073    0.00000280   -0.00000380
     atom  279 type  4   force =     0.00000126   -0.00000018   -0.00000136
     atom  280 type  4   force =    -0.00000059   -0.00000019   -0.00000166
     atom  281 type  4   force =     0.00000005   -0.00000164   -0.00000112
     atom  282 type  4   force =     0.00000219    0.00000081   -0.00000254
     atom  283 type  4   force =     0.00000071   -0.00000202   -0.00000415
     atom  284 type  4   force =    -0.00000111    0.00000151   -0.00000283
     atom  285 type  4   force =    -0.00000147    0.00000093   -0.00000036
     atom  286 type  4   force =     0.00000120   -0.00000010   -0.00000173
     atom  287 type  4   force =     0.00000113   -0.00000050   -0.00000280
     atom  288 type  4   force =    -0.00000314   -0.00000052   -0.00000470

     Total force =     0.137713     Total SCF correction =     0.000096

     Writing all to output data dir ./temp/0D0035Ha.save/

     init_run     :      5.87s CPU      5.05s WALL (       1 calls)
     electrons    :    457.43s CPU    395.60s WALL (       1 calls)
     forces       :      4.27s CPU      3.11s WALL (       1 calls)

     Called by init_run:
     wfcinit      :      2.99s CPU      2.93s WALL (       1 calls)
     potinit      :      0.92s CPU      0.49s WALL (       1 calls)
     hinit0       :      1.36s CPU      1.02s WALL (       1 calls)

     Called by electrons:
     c_bands      :    422.72s CPU    368.80s WALL (      25 calls)
     sum_band     :     32.61s CPU     16.45s WALL (      25 calls)
     v_of_rho     :      1.61s CPU      1.07s WALL (      26 calls)
     mix_rho      :      0.35s CPU      0.24s WALL (      25 calls)

     Called by c_bands:
     init_us_2    :      2.25s CPU      1.20s WALL (      51 calls)
     init_us_2:cp :      2.25s CPU      1.20s WALL (      51 calls)
     regterg      :    417.83s CPU    365.86s WALL (      35 calls)

     Called by *egterg:
     rdiaghg      :    118.61s CPU     67.92s WALL (     501 calls)
     h_psi        :    201.26s CPU    199.70s WALL (     502 calls)
     g_psi        :      0.71s CPU      0.36s WALL (     466 calls)

     Called by h_psi:
     h_psi:calbec :     40.51s CPU     40.51s WALL (     502 calls)
     vloc_psi     :    121.50s CPU    119.86s WALL (     502 calls)
     add_vuspsi   :     37.97s CPU     38.68s WALL (     502 calls)

     General routines
     calbec       :     41.88s CPU     41.87s WALL (     506 calls)
     fft          :      1.17s CPU      0.89s WALL (     216 calls)
     ffts         :      0.14s CPU      0.07s WALL (      25 calls)
     fftw         :    140.56s CPU    125.00s WALL (  130844 calls)

     Parallel routines

     PWSCF        :   8m 1.17s CPU   7m21.70s WALL


   This run was terminated on:  16:29: 3  20Mar2025            

=------------------------------------------------------------------------------=
   JOB DONE.
=------------------------------------------------------------------------------=
