
     Program PWSCF v.7.2 starts on 21Mar2025 at 11:23:24 

     This program is part of the open-source Quantum ESPRESSO suite
     for quantum simulation of materials; please cite
         "P. Giannozzi et al., J. Phys.:Condens. Matter 21 395502 (2009);
         "P. Giannozzi et al., J. Phys.:Condens. Matter 29 465901 (2017);
         "P. Giannozzi et al., J. Chem. Phys. 152 154105 (2020);
          URL http://www.quantum-espresso.org", 
     in publications or presentations arising from this work. More details at
     http://www.quantum-espresso.org/quote

     Parallel version (MPI & OpenMP), running on     384 processor cores
     Number of MPI processes:               192
     Threads/MPI process:                     2

     MPI processes distributed on     8 nodes
     733140 MiB available memory on the printing compute node when the environment starts

     Reading input from Al111slabWithNa_M0D002Ha.sc.in

     Current dimensions of program PWSCF are:
     Max number of different atomic species (ntypx) = 10
     Max number of k-points (npk) =  40000
     Max angular momentum in pseudopotentials (lmaxx) =  4

     K-points division:     npool     =      12
     R & G space division:  proc/nbgrp/npool/nimage =      16
     Subspace diagonalization in iterative solution of the eigenvalue problem:
     a serial algorithm will be used


     Parallelization info
     --------------------
     sticks:   dense  smooth     PW     G-vecs:    dense   smooth      PW
     Min         401     401    106                96479    96479   13202
     Max         402     402    107                96492    96492   13217
     Sum        6419    6419   1707              1543747  1543747  211325

     Using Slab Decomposition



     bravais-lattice index     =            0
     lattice parameter (alat)  =      18.6834  a.u.
     unit-cell volume          =   11425.3995 (a.u.)^3
     number of atoms/cell      =           33
     number of atomic types    =            2
     number of electrons       =       105.00
     number of Kohn-Sham states=           64
     kinetic-energy cutoff     =     100.0000  Ry
     charge density cutoff     =     400.0000  Ry
     scf convergence threshold =      1.0E-09
     mixing beta               =       0.7000
     number of iterations used =            8  plain     mixing
     Exchange-correlation= PBE
                           (   1   4   3   4   0   0   0)

     celldm(1)=  18.683402  celldm(2)=   0.000000  celldm(3)=   0.000000
     celldm(4)=   0.000000  celldm(5)=   0.000000  celldm(6)=   0.000000

     crystal axes: (cart. coord. in units of alat)
               a(1) = (   1.000000   0.000000   0.000000 )  
               a(2) = (   0.000000   0.577350   0.000000 )  
               a(3) = (   0.000000   0.000000   3.034340 )  

     reciprocal axes: (cart. coord. in units 2 pi/alat)
               b(1) = (  1.000000  0.000000  0.000000 )  
               b(2) = (  0.000000  1.732051  0.000000 )  
               b(3) = (  0.000000  0.000000  0.329561 )  


     PseudoPot. # 1 for Al read from file:
     ./Al.upf
     MD5 check sum: a92309766db89a6b54a5f8790cc4d69e
     Pseudo is Norm-conserving + core correction, Zval =  3.0
     Generated using ONCVPSP code by D. R. Hamann
     Using radial grid of 1876 points,  6 beta functions with: 
                l(1) =   0
                l(2) =   0
                l(3) =   1
                l(4) =   1
                l(5) =   2
                l(6) =   2

     PseudoPot. # 2 for Na read from file:
     ./Na.upf
     MD5 check sum: ed5af011864af3d1529ce3b51bbccf87
     Pseudo is Norm-conserving, Zval =  9.0
     Generated using ONCVPSP code by D. R. Hamann
     Using radial grid of 1992 points,  4 beta functions with: 
                l(1) =   0
                l(2) =   0
                l(3) =   1
                l(4) =   1

     atomic species   valence    mass     pseudopotential
        Al             3.00    26.00000     Al( 1.00)
        Na             9.00    23.00000     Na( 1.00)

     No symmetry found



   Cartesian axes

     site n.     atom                  positions (alat units)
         1           Al  tau(   1) = (   0.0000000   0.0000000   1.1636163  )
         2           Al  tau(   2) = (   0.3333333   0.0000000   1.6350208  )
         3           Al  tau(   3) = (   0.6666666   0.0000000   1.3993186  )
         4           Al  tau(   4) = (   0.0000000   0.0000000   1.8707232  )
         5           Al  tau(   5) = (   0.1666667   0.2886751   1.3993186  )
         6           Al  tau(   6) = (   0.5000000   0.2886751   1.8707232  )
         7           Al  tau(   7) = (   0.8333333   0.2886751   1.6350208  )
         8           Al  tau(   8) = (   0.9166667   0.4330127   1.3993186  )
         9           Al  tau(   9) = (   0.2500001   0.4330127   1.8707232  )
        10           Al  tau(  10) = (   0.5833333   0.4330127   1.6350208  )
        11           Al  tau(  11) = (   0.2500001   0.4330127   1.1636163  )
        12           Al  tau(  12) = (   0.0833334   0.1443376   1.6350208  )
        13           Al  tau(  13) = (   0.7500000   0.1443376   1.1636163  )
        14           Al  tau(  14) = (   0.7500000   0.1443376   1.8707232  )
        15           Al  tau(  15) = (   0.4166666   0.1443376   1.3993186  )
        16           Al  tau(  16) = (   0.9166667   0.1443376   1.3993186  )
        17           Al  tau(  17) = (   0.2500001   0.1443376   1.8707232  )
        18           Al  tau(  18) = (   0.5833333   0.1443376   1.6350208  )
        19           Al  tau(  19) = (   0.2500001   0.1443376   1.1636163  )
        20           Al  tau(  20) = (   0.0833334   0.4330127   1.6350208  )
        21           Al  tau(  21) = (   0.7500000   0.4330127   1.1636163  )
        22           Al  tau(  22) = (   0.7500000   0.4330127   1.8707232  )
        23           Al  tau(  23) = (   0.4166666   0.4330127   1.3993186  )
        24           Al  tau(  24) = (   0.1666667   0.0000000   1.3993186  )
        25           Al  tau(  25) = (   0.5000000   0.0000000   1.8707232  )
        26           Al  tau(  26) = (   0.8333333   0.0000000   1.6350208  )
        27           Al  tau(  27) = (   0.5000000   0.0000000   1.1636163  )
        28           Al  tau(  28) = (   0.3333333   0.2886751   1.6350208  )
        29           Al  tau(  29) = (   0.0000000   0.2886751   1.1636163  )
        30           Al  tau(  30) = (   0.0000000   0.2886751   1.8707232  )
        31           Al  tau(  31) = (   0.6666666   0.2886751   1.3993186  )
        32           Al  tau(  32) = (   0.5000000   0.2886751   1.1636163  )
        33           Na  tau(  33) = (   0.5000000   0.2886751   0.8799585  )

     number of k points=    72  Fermi-Dirac smearing, width (Ry)=  0.0032
                       cart. coord. in units 2pi/alat
        k(    1) = (   0.0416667   0.0721688   0.0000000), wk =   0.0277778
        k(    2) = (   0.0416667   0.2165063   0.0000000), wk =   0.0277778
        k(    3) = (   0.0416667   0.3608439   0.0000000), wk =   0.0277778
        k(    4) = (   0.0416667   0.5051815   0.0000000), wk =   0.0277778
        k(    5) = (   0.0416667   0.6495190   0.0000000), wk =   0.0277778
        k(    6) = (   0.0416667   0.7938566   0.0000000), wk =   0.0277778
        k(    7) = (   0.0416667  -0.7938566   0.0000000), wk =   0.0277778
        k(    8) = (   0.0416667  -0.6495190   0.0000000), wk =   0.0277778
        k(    9) = (   0.0416667  -0.5051815   0.0000000), wk =   0.0277778
        k(   10) = (   0.0416667  -0.3608439   0.0000000), wk =   0.0277778
        k(   11) = (   0.0416667  -0.2165063   0.0000000), wk =   0.0277778
        k(   12) = (   0.0416667  -0.0721688   0.0000000), wk =   0.0277778
        k(   13) = (   0.1250000   0.0721688   0.0000000), wk =   0.0277778
        k(   14) = (   0.1250000   0.2165063   0.0000000), wk =   0.0277778
        k(   15) = (   0.1250000   0.3608439   0.0000000), wk =   0.0277778
        k(   16) = (   0.1250000   0.5051815   0.0000000), wk =   0.0277778
        k(   17) = (   0.1250000   0.6495190   0.0000000), wk =   0.0277778
        k(   18) = (   0.1250000   0.7938566   0.0000000), wk =   0.0277778
        k(   19) = (   0.1250000  -0.7938566   0.0000000), wk =   0.0277778
        k(   20) = (   0.1250000  -0.6495190   0.0000000), wk =   0.0277778
        k(   21) = (   0.1250000  -0.5051815   0.0000000), wk =   0.0277778
        k(   22) = (   0.1250000  -0.3608439   0.0000000), wk =   0.0277778
        k(   23) = (   0.1250000  -0.2165063   0.0000000), wk =   0.0277778
        k(   24) = (   0.1250000  -0.0721688   0.0000000), wk =   0.0277778
        k(   25) = (   0.2083333   0.0721688   0.0000000), wk =   0.0277778
        k(   26) = (   0.2083333   0.2165063   0.0000000), wk =   0.0277778
        k(   27) = (   0.2083333   0.3608439   0.0000000), wk =   0.0277778
        k(   28) = (   0.2083333   0.5051815   0.0000000), wk =   0.0277778
        k(   29) = (   0.2083333   0.6495190   0.0000000), wk =   0.0277778
        k(   30) = (   0.2083333   0.7938566   0.0000000), wk =   0.0277778
        k(   31) = (   0.2083333  -0.7938566   0.0000000), wk =   0.0277778
        k(   32) = (   0.2083333  -0.6495190   0.0000000), wk =   0.0277778
        k(   33) = (   0.2083333  -0.5051815   0.0000000), wk =   0.0277778
        k(   34) = (   0.2083333  -0.3608439   0.0000000), wk =   0.0277778
        k(   35) = (   0.2083333  -0.2165063   0.0000000), wk =   0.0277778
        k(   36) = (   0.2083333  -0.0721688   0.0000000), wk =   0.0277778
        k(   37) = (   0.2916667   0.0721688   0.0000000), wk =   0.0277778
        k(   38) = (   0.2916667   0.2165063   0.0000000), wk =   0.0277778
        k(   39) = (   0.2916667   0.3608439   0.0000000), wk =   0.0277778
        k(   40) = (   0.2916667   0.5051815   0.0000000), wk =   0.0277778
        k(   41) = (   0.2916667   0.6495190   0.0000000), wk =   0.0277778
        k(   42) = (   0.2916667   0.7938566   0.0000000), wk =   0.0277778
        k(   43) = (   0.2916667  -0.7938566   0.0000000), wk =   0.0277778
        k(   44) = (   0.2916667  -0.6495190   0.0000000), wk =   0.0277778
        k(   45) = (   0.2916667  -0.5051815   0.0000000), wk =   0.0277778
        k(   46) = (   0.2916667  -0.3608439   0.0000000), wk =   0.0277778
        k(   47) = (   0.2916667  -0.2165063   0.0000000), wk =   0.0277778
        k(   48) = (   0.2916667  -0.0721688   0.0000000), wk =   0.0277778
        k(   49) = (   0.3750000   0.0721688   0.0000000), wk =   0.0277778
        k(   50) = (   0.3750000   0.2165063   0.0000000), wk =   0.0277778
        k(   51) = (   0.3750000   0.3608439   0.0000000), wk =   0.0277778
        k(   52) = (   0.3750000   0.5051815   0.0000000), wk =   0.0277778
        k(   53) = (   0.3750000   0.6495190   0.0000000), wk =   0.0277778
        k(   54) = (   0.3750000   0.7938566   0.0000000), wk =   0.0277778
        k(   55) = (   0.3750000  -0.7938566   0.0000000), wk =   0.0277778
        k(   56) = (   0.3750000  -0.6495190   0.0000000), wk =   0.0277778
        k(   57) = (   0.3750000  -0.5051815   0.0000000), wk =   0.0277778
        k(   58) = (   0.3750000  -0.3608439   0.0000000), wk =   0.0277778
        k(   59) = (   0.3750000  -0.2165063   0.0000000), wk =   0.0277778
        k(   60) = (   0.3750000  -0.0721688   0.0000000), wk =   0.0277778
        k(   61) = (   0.4583333   0.0721688   0.0000000), wk =   0.0277778
        k(   62) = (   0.4583333   0.2165063   0.0000000), wk =   0.0277778
        k(   63) = (   0.4583333   0.3608439   0.0000000), wk =   0.0277778
        k(   64) = (   0.4583333   0.5051815   0.0000000), wk =   0.0277778
        k(   65) = (   0.4583333   0.6495190   0.0000000), wk =   0.0277778
        k(   66) = (   0.4583333   0.7938566   0.0000000), wk =   0.0277778
        k(   67) = (   0.4583333  -0.7938566   0.0000000), wk =   0.0277778
        k(   68) = (   0.4583333  -0.6495190   0.0000000), wk =   0.0277778
        k(   69) = (   0.4583333  -0.5051815   0.0000000), wk =   0.0277778
        k(   70) = (   0.4583333  -0.3608439   0.0000000), wk =   0.0277778
        k(   71) = (   0.4583333  -0.2165063   0.0000000), wk =   0.0277778
        k(   72) = (   0.4583333  -0.0721688   0.0000000), wk =   0.0277778

     Dense  grid:  1543747 G-vectors     FFT dimensions: ( 120,  72, 375)

     Estimated max dynamical RAM per process >     299.74 MB

     Estimated total dynamical RAM >      52.15 GB

     Initial potential from superposition of free atoms

     starting charge     104.9155, renormalised to     105.0000

     negative rho (up, down):  4.627E-05 0.000E+00

     Adding external electric field

     Computed dipole along edir(3) : 
        Dipole                0.0117 Ry au,          0.0297 Debye
        Dipole field          0.0000 Ry au, 

        E field amplitude [Ha a.u.]: -2.0000E-03
        Potential amp.       -0.1826 Ry
        Total length         45.3534 bohr

     Starting wfcs are  133 atomic wfcs

     total cpu time spent up to now is       15.3 secs

     Self-consistent Calculation

     iteration #  1     ecut=   100.00 Ry     beta= 0.70
     Davidson diagonalization with overlap
     ethr =  1.00E-02,  avg # of iterations =  3.1

     negative rho (up, down):  9.157E-06 0.000E+00

     Adding external electric field

     Computed dipole along edir(3) : 
        Dipole              -20.9606 Ry au,        -53.2766 Debye
        Dipole field         -0.0231 Ry au, 

        E field amplitude [Ha a.u.]: -2.0000E-03
        Potential amp.        1.9097 Ry
        Total length         45.3534 bohr


     total cpu time spent up to now is       28.0 secs

     total energy              =    -235.36033161 Ry
     estimated scf accuracy    <       5.03568067 Ry

     iteration #  2     ecut=   100.00 Ry     beta= 0.70
     Davidson diagonalization with overlap
     ethr =  4.80E-03,  avg # of iterations = 17.1

     negative rho (up, down):  8.095E-07 0.000E+00

     Adding external electric field

     Computed dipole along edir(3) : 
        Dipole                5.4612 Ry au,         13.8810 Debye
        Dipole field          0.0060 Ry au, 

        E field amplitude [Ha a.u.]: -2.0000E-03
        Potential amp.       -0.7263 Ry
        Total length         45.3534 bohr


     total cpu time spent up to now is       71.7 secs

     total energy              =    -174.83652056 Ry
     estimated scf accuracy    <    3636.24666375 Ry

     iteration #  3     ecut=   100.00 Ry     beta= 0.70
     Davidson diagonalization with overlap
     ethr =  4.80E-03,  avg # of iterations = 16.6

     Adding external electric field

     Computed dipole along edir(3) : 
        Dipole                2.9570 Ry au,          7.5159 Debye
        Dipole field          0.0033 Ry au, 

        E field amplitude [Ha a.u.]: -2.0000E-03
        Potential amp.       -0.4764 Ry
        Total length         45.3534 bohr


     total cpu time spent up to now is      113.9 secs

     total energy              =    -237.83425579 Ry
     estimated scf accuracy    <      23.76371549 Ry

     iteration #  4     ecut=   100.00 Ry     beta= 0.70
     Davidson diagonalization with overlap
     ethr =  4.80E-03,  avg # of iterations =  5.1

     Adding external electric field

     Computed dipole along edir(3) : 
        Dipole                1.6223 Ry au,          4.1236 Debye
        Dipole field          0.0018 Ry au, 

        E field amplitude [Ha a.u.]: -2.0000E-03
        Potential amp.       -0.3433 Ry
        Total length         45.3534 bohr


     total cpu time spent up to now is      127.0 secs

     total energy              =    -238.70276956 Ry
     estimated scf accuracy    <      16.27114424 Ry

     iteration #  5     ecut=   100.00 Ry     beta= 0.70
     Davidson diagonalization with overlap
     ethr =  4.80E-03,  avg # of iterations =  2.0

     Adding external electric field

     Computed dipole along edir(3) : 
        Dipole                1.6576 Ry au,          4.2133 Debye
        Dipole field          0.0018 Ry au, 

        E field amplitude [Ha a.u.]: -2.0000E-03
        Potential amp.       -0.3468 Ry
        Total length         45.3534 bohr


     total cpu time spent up to now is      136.3 secs

     total energy              =    -239.33220762 Ry
     estimated scf accuracy    <       2.70513822 Ry

     iteration #  6     ecut=   100.00 Ry     beta= 0.70
     Davidson diagonalization with overlap
     ethr =  2.58E-03,  avg # of iterations =  1.1

     Adding external electric field

     Computed dipole along edir(3) : 
        Dipole                1.6839 Ry au,          4.2801 Debye
        Dipole field          0.0019 Ry au, 

        E field amplitude [Ha a.u.]: -2.0000E-03
        Potential amp.       -0.3494 Ry
        Total length         45.3534 bohr


     total cpu time spent up to now is      145.1 secs

     total energy              =    -239.39483764 Ry
     estimated scf accuracy    <       0.53961830 Ry

     iteration #  7     ecut=   100.00 Ry     beta= 0.70
     Davidson diagonalization with overlap
     ethr =  5.14E-04,  avg # of iterations =  1.9

     Adding external electric field

     Computed dipole along edir(3) : 
        Dipole                1.6155 Ry au,          4.1062 Debye
        Dipole field          0.0018 Ry au, 

        E field amplitude [Ha a.u.]: -2.0000E-03
        Potential amp.       -0.3426 Ry
        Total length         45.3534 bohr


     total cpu time spent up to now is      154.3 secs

     total energy              =    -239.39830353 Ry
     estimated scf accuracy    <       0.35395508 Ry

     iteration #  8     ecut=   100.00 Ry     beta= 0.70
     Davidson diagonalization with overlap
     ethr =  3.37E-04,  avg # of iterations =  2.5

     Adding external electric field

     Computed dipole along edir(3) : 
        Dipole                1.2988 Ry au,          3.3013 Debye
        Dipole field          0.0014 Ry au, 

        E field amplitude [Ha a.u.]: -2.0000E-03
        Potential amp.       -0.3110 Ry
        Total length         45.3534 bohr


     total cpu time spent up to now is      164.9 secs

     total energy              =    -239.38795468 Ry
     estimated scf accuracy    <       0.26053597 Ry

     iteration #  9     ecut=   100.00 Ry     beta= 0.70
     Davidson diagonalization with overlap
     ethr =  2.48E-04,  avg # of iterations =  1.4

     negative rho (up, down):  1.282E-07 0.000E+00

     Adding external electric field

     Computed dipole along edir(3) : 
        Dipole                1.0002 Ry au,          2.5422 Debye
        Dipole field          0.0011 Ry au, 

        E field amplitude [Ha a.u.]: -2.0000E-03
        Potential amp.       -0.2812 Ry
        Total length         45.3534 bohr


     total cpu time spent up to now is      173.9 secs

     total energy              =    -239.37589303 Ry
     estimated scf accuracy    <       0.19925887 Ry

     iteration # 10     ecut=   100.00 Ry     beta= 0.70
     Davidson diagonalization with overlap
     ethr =  1.90E-04,  avg # of iterations =  2.1

     negative rho (up, down):  2.023E-06 0.000E+00

     Adding external electric field

     Computed dipole along edir(3) : 
        Dipole                0.6540 Ry au,          1.6623 Debye
        Dipole field          0.0007 Ry au, 

        E field amplitude [Ha a.u.]: -2.0000E-03
        Potential amp.       -0.2467 Ry
        Total length         45.3534 bohr


     total cpu time spent up to now is      183.7 secs

     total energy              =    -239.36365469 Ry
     estimated scf accuracy    <       0.16159470 Ry

     iteration # 11     ecut=   100.00 Ry     beta= 0.70
     Davidson diagonalization with overlap
     ethr =  1.54E-04,  avg # of iterations =  3.5

     negative rho (up, down):  1.980E-04 0.000E+00

     Adding external electric field

     Computed dipole along edir(3) : 
        Dipole               -2.2281 Ry au,         -5.6633 Debye
        Dipole field         -0.0025 Ry au, 

        E field amplitude [Ha a.u.]: -2.0000E-03
        Potential amp.        0.0409 Ry
        Total length         45.3534 bohr


     total cpu time spent up to now is      195.1 secs

     total energy              =    -239.30308871 Ry
     estimated scf accuracy    <       0.12076335 Ry

     iteration # 12     ecut=   100.00 Ry     beta= 0.70
     Davidson diagonalization with overlap
     ethr =  1.15E-04,  avg # of iterations =  9.6

     negative rho (up, down):  2.658E-05 0.000E+00

     Adding external electric field

     Computed dipole along edir(3) : 
        Dipole               -1.8472 Ry au,         -4.6950 Debye
        Dipole field         -0.0020 Ry au, 

        E field amplitude [Ha a.u.]: -2.0000E-03
        Potential amp.        0.0029 Ry
        Total length         45.3534 bohr


     total cpu time spent up to now is      210.2 secs

     total energy              =    -239.32081624 Ry
     estimated scf accuracy    <       0.09409653 Ry

     iteration # 13     ecut=   100.00 Ry     beta= 0.70
     Davidson diagonalization with overlap
     ethr =  8.96E-05,  avg # of iterations =  2.2

     negative rho (up, down):  3.818E-05 0.000E+00

     Adding external electric field

     Computed dipole along edir(3) : 
        Dipole               -1.9918 Ry au,         -5.0627 Debye
        Dipole field         -0.0022 Ry au, 

        E field amplitude [Ha a.u.]: -2.0000E-03
        Potential amp.        0.0173 Ry
        Total length         45.3534 bohr


     total cpu time spent up to now is      219.6 secs

     total energy              =    -239.32323090 Ry
     estimated scf accuracy    <       0.01958027 Ry

     iteration # 14     ecut=   100.00 Ry     beta= 0.70
     Davidson diagonalization with overlap
     ethr =  1.86E-05,  avg # of iterations =  5.7

     negative rho (up, down):  2.273E-05 0.000E+00

     Adding external electric field

     Computed dipole along edir(3) : 
        Dipole               -1.9343 Ry au,         -4.9165 Debye
        Dipole field         -0.0021 Ry au, 

        E field amplitude [Ha a.u.]: -2.0000E-03
        Potential amp.        0.0116 Ry
        Total length         45.3534 bohr


     total cpu time spent up to now is      233.1 secs

     total energy              =    -239.32430870 Ry
     estimated scf accuracy    <       0.02161893 Ry

     iteration # 15     ecut=   100.00 Ry     beta= 0.70
     Davidson diagonalization with overlap
     ethr =  1.86E-05,  avg # of iterations =  1.4

     negative rho (up, down):  8.566E-06 0.000E+00

     Adding external electric field

     Computed dipole along edir(3) : 
        Dipole               -1.8956 Ry au,         -4.8182 Debye
        Dipole field         -0.0021 Ry au, 

        E field amplitude [Ha a.u.]: -2.0000E-03
        Potential amp.        0.0077 Ry
        Total length         45.3534 bohr


     total cpu time spent up to now is      242.7 secs

     total energy              =    -239.32438170 Ry
     estimated scf accuracy    <       0.00654247 Ry

     iteration # 16     ecut=   100.00 Ry     beta= 0.70
     Davidson diagonalization with overlap
     ethr =  6.23E-06,  avg # of iterations =  6.4

     negative rho (up, down):  4.745E-06 0.000E+00

     Adding external electric field

     Computed dipole along edir(3) : 
        Dipole               -1.8747 Ry au,         -4.7650 Debye
        Dipole field         -0.0021 Ry au, 

        E field amplitude [Ha a.u.]: -2.0000E-03
        Potential amp.        0.0056 Ry
        Total length         45.3534 bohr


     total cpu time spent up to now is      256.6 secs

     total energy              =    -239.32449353 Ry
     estimated scf accuracy    <       0.00581109 Ry

     iteration # 17     ecut=   100.00 Ry     beta= 0.70
     Davidson diagonalization with overlap
     ethr =  5.53E-06,  avg # of iterations =  1.7

     negative rho (up, down):  9.107E-07 0.000E+00

     Adding external electric field

     Computed dipole along edir(3) : 
        Dipole               -1.8218 Ry au,         -4.6306 Debye
        Dipole field         -0.0020 Ry au, 

        E field amplitude [Ha a.u.]: -2.0000E-03
        Potential amp.        0.0003 Ry
        Total length         45.3534 bohr


     total cpu time spent up to now is      265.8 secs

     total energy              =    -239.32435869 Ry
     estimated scf accuracy    <       0.00240792 Ry

     iteration # 18     ecut=   100.00 Ry     beta= 0.70
     Davidson diagonalization with overlap
     ethr =  2.29E-06,  avg # of iterations =  8.8

     Adding external electric field

     Computed dipole along edir(3) : 
        Dipole               -1.8030 Ry au,         -4.5827 Debye
        Dipole field         -0.0020 Ry au, 

        E field amplitude [Ha a.u.]: -2.0000E-03
        Potential amp.       -0.0015 Ry
        Total length         45.3534 bohr


     total cpu time spent up to now is      280.5 secs

     total energy              =    -239.32443270 Ry
     estimated scf accuracy    <       0.00014781 Ry

     iteration # 19     ecut=   100.00 Ry     beta= 0.70
     Davidson diagonalization with overlap
     ethr =  1.41E-07,  avg # of iterations =  5.9

     Adding external electric field

     Computed dipole along edir(3) : 
        Dipole               -1.7969 Ry au,         -4.5673 Debye
        Dipole field         -0.0020 Ry au, 

        E field amplitude [Ha a.u.]: -2.0000E-03
        Potential amp.       -0.0021 Ry
        Total length         45.3534 bohr


     total cpu time spent up to now is      293.8 secs

     total energy              =    -239.32445981 Ry
     estimated scf accuracy    <       0.00005700 Ry

     iteration # 20     ecut=   100.00 Ry     beta= 0.70
     Davidson diagonalization with overlap
     ethr =  5.43E-08,  avg # of iterations =  2.1

     Adding external electric field

     Computed dipole along edir(3) : 
        Dipole               -1.7953 Ry au,         -4.5631 Debye
        Dipole field         -0.0020 Ry au, 

        E field amplitude [Ha a.u.]: -2.0000E-03
        Potential amp.       -0.0023 Ry
        Total length         45.3534 bohr


     total cpu time spent up to now is      303.5 secs

     total energy              =    -239.32446552 Ry
     estimated scf accuracy    <       0.00001182 Ry

     iteration # 21     ecut=   100.00 Ry     beta= 0.70
     Davidson diagonalization with overlap
     ethr =  1.13E-08,  avg # of iterations =  3.6

     Adding external electric field

     Computed dipole along edir(3) : 
        Dipole               -1.7919 Ry au,         -4.5545 Debye
        Dipole field         -0.0020 Ry au, 

        E field amplitude [Ha a.u.]: -2.0000E-03
        Potential amp.       -0.0026 Ry
        Total length         45.3534 bohr


     total cpu time spent up to now is      314.5 secs

     total energy              =    -239.32446715 Ry
     estimated scf accuracy    <       0.00001096 Ry

     iteration # 22     ecut=   100.00 Ry     beta= 0.70
     Davidson diagonalization with overlap
     ethr =  1.04E-08,  avg # of iterations =  2.0

     Adding external electric field

     Computed dipole along edir(3) : 
        Dipole               -1.7908 Ry au,         -4.5518 Debye
        Dipole field         -0.0020 Ry au, 

        E field amplitude [Ha a.u.]: -2.0000E-03
        Potential amp.       -0.0028 Ry
        Total length         45.3534 bohr


     total cpu time spent up to now is      323.8 secs

     total energy              =    -239.32446773 Ry
     estimated scf accuracy    <       0.00000171 Ry

     iteration # 23     ecut=   100.00 Ry     beta= 0.70
     Davidson diagonalization with overlap
     ethr =  1.63E-09,  avg # of iterations =  4.1

     Adding external electric field

     Computed dipole along edir(3) : 
        Dipole               -1.7899 Ry au,         -4.5496 Debye
        Dipole field         -0.0020 Ry au, 

        E field amplitude [Ha a.u.]: -2.0000E-03
        Potential amp.       -0.0028 Ry
        Total length         45.3534 bohr


     total cpu time spent up to now is      335.3 secs

     total energy              =    -239.32446803 Ry
     estimated scf accuracy    <       0.00000066 Ry

     iteration # 24     ecut=   100.00 Ry     beta= 0.70
     Davidson diagonalization with overlap
     ethr =  6.31E-10,  avg # of iterations =  4.2

     Adding external electric field

     Computed dipole along edir(3) : 
        Dipole               -1.7897 Ry au,         -4.5491 Debye
        Dipole field         -0.0020 Ry au, 

        E field amplitude [Ha a.u.]: -2.0000E-03
        Potential amp.       -0.0029 Ry
        Total length         45.3534 bohr


     total cpu time spent up to now is      347.2 secs

     total energy              =    -239.32446811 Ry
     estimated scf accuracy    <       0.00000105 Ry

     iteration # 25     ecut=   100.00 Ry     beta= 0.70
     Davidson diagonalization with overlap
     ethr =  6.31E-10,  avg # of iterations =  2.0

     Adding external electric field

     Computed dipole along edir(3) : 
        Dipole               -1.7898 Ry au,         -4.5492 Debye
        Dipole field         -0.0020 Ry au, 

        E field amplitude [Ha a.u.]: -2.0000E-03
        Potential amp.       -0.0029 Ry
        Total length         45.3534 bohr


     total cpu time spent up to now is      356.8 secs

     total energy              =    -239.32446821 Ry
     estimated scf accuracy    <       0.00000018 Ry

     iteration # 26     ecut=   100.00 Ry     beta= 0.70
     Davidson diagonalization with overlap
     ethr =  1.74E-10,  avg # of iterations =  2.4

     Adding external electric field

     Computed dipole along edir(3) : 
        Dipole               -1.7900 Ry au,         -4.5498 Debye
        Dipole field         -0.0020 Ry au, 

        E field amplitude [Ha a.u.]: -2.0000E-03
        Potential amp.       -0.0028 Ry
        Total length         45.3534 bohr


     total cpu time spent up to now is      367.1 secs

     total energy              =    -239.32446821 Ry
     estimated scf accuracy    <       0.00000018 Ry

     iteration # 27     ecut=   100.00 Ry     beta= 0.70
     Davidson diagonalization with overlap
     ethr =  1.73E-10,  avg # of iterations =  2.1

     Adding external electric field

     Computed dipole along edir(3) : 
        Dipole               -1.7897 Ry au,         -4.5490 Debye
        Dipole field         -0.0020 Ry au, 

        E field amplitude [Ha a.u.]: -2.0000E-03
        Potential amp.       -0.0029 Ry
        Total length         45.3534 bohr


     total cpu time spent up to now is      376.5 secs

     total energy              =    -239.32446824 Ry
     estimated scf accuracy    <       0.00000017 Ry

     iteration # 28     ecut=   100.00 Ry     beta= 0.70
     Davidson diagonalization with overlap
     ethr =  1.64E-10,  avg # of iterations =  1.0

     Adding external electric field

     Computed dipole along edir(3) : 
        Dipole               -1.7898 Ry au,         -4.5493 Debye
        Dipole field         -0.0020 Ry au, 

        E field amplitude [Ha a.u.]: -2.0000E-03
        Potential amp.       -0.0029 Ry
        Total length         45.3534 bohr


     total cpu time spent up to now is      385.1 secs

     total energy              =    -239.32446824 Ry
     estimated scf accuracy    <       0.00000002 Ry

     iteration # 29     ecut=   100.00 Ry     beta= 0.70
     Davidson diagonalization with overlap
     ethr =  1.56E-11,  avg # of iterations =  2.6

     Adding external electric field

     Computed dipole along edir(3) : 
        Dipole               -1.7897 Ry au,         -4.5490 Debye
        Dipole field         -0.0020 Ry au, 

        E field amplitude [Ha a.u.]: -2.0000E-03
        Potential amp.       -0.0029 Ry
        Total length         45.3534 bohr


     total cpu time spent up to now is      395.4 secs

     total energy              =    -239.32446824 Ry
     estimated scf accuracy    <          7.3E-09 Ry

     iteration # 30     ecut=   100.00 Ry     beta= 0.70
     Davidson diagonalization with overlap
     ethr =  6.95E-12,  avg # of iterations =  3.3

     Adding external electric field

     Computed dipole along edir(3) : 
        Dipole               -1.7898 Ry au,         -4.5491 Debye
        Dipole field         -0.0020 Ry au, 

        E field amplitude [Ha a.u.]: -2.0000E-03
        Potential amp.       -0.0029 Ry
        Total length         45.3534 bohr


     total cpu time spent up to now is      406.5 secs

     total energy              =    -239.32446824 Ry
     estimated scf accuracy    <       0.00000001 Ry

     iteration # 31     ecut=   100.00 Ry     beta= 0.70
     Davidson diagonalization with overlap
     ethr =  6.95E-12,  avg # of iterations =  2.0

     Adding external electric field

     Computed dipole along edir(3) : 
        Dipole               -1.7897 Ry au,         -4.5491 Debye
        Dipole field         -0.0020 Ry au, 

        E field amplitude [Ha a.u.]: -2.0000E-03
        Potential amp.       -0.0029 Ry
        Total length         45.3534 bohr


     total cpu time spent up to now is      415.7 secs

     total energy              =    -239.32446825 Ry
     estimated scf accuracy    <          2.1E-09 Ry

     iteration # 32     ecut=   100.00 Ry     beta= 0.70
     Davidson diagonalization with overlap
     ethr =  1.98E-12,  avg # of iterations =  2.0

     Adding external electric field

     Computed dipole along edir(3) : 
        Dipole               -1.7898 Ry au,         -4.5491 Debye
        Dipole field         -0.0020 Ry au, 

        E field amplitude [Ha a.u.]: -2.0000E-03
        Potential amp.       -0.0029 Ry
        Total length         45.3534 bohr


     total cpu time spent up to now is      424.8 secs

     End of self-consistent calculation

          k = 0.0417 0.0722 0.0000 (192948 PWs)   bands (ev):

   -53.5850 -25.5156 -25.5004 -25.4991 -10.3998  -9.3725  -9.0212  -8.7720
    -8.0016  -7.7551  -7.7224  -6.3643  -6.3038  -6.1185  -5.5722  -5.5214
    -5.3011  -4.9675  -4.7273  -4.7270  -4.5759  -4.2444  -4.2443  -4.1708
    -4.0205  -3.9677  -3.9269  -3.7473  -3.7465  -3.6957  -3.2887  -3.2880
    -3.1022  -3.0768  -2.9875  -2.3603  -2.2077  -2.2021  -1.8074  -1.6095
    -1.5660  -1.4603  -1.4532  -1.2892  -1.1167  -0.7030  -0.3922  -0.2687
    -0.1292  -0.0780   0.1264   0.1410   0.3058   0.3310   0.6212   0.6251
     0.7405   0.7690   0.8511   0.8600   1.0612   1.0907   1.3249   1.4336

          k = 0.0417 0.2165 0.0000 (192942 PWs)   bands (ev):

   -53.5850 -25.5156 -25.5004 -25.4991 -10.3369  -9.3098  -8.9589  -8.7098
    -7.9396  -7.6933  -7.6602  -6.9782  -6.3028  -6.0573  -5.9706  -5.6335
    -5.4594  -5.3906  -4.7844  -4.6668  -4.6390  -4.4004  -4.3542  -4.1842
    -4.1094  -3.8661  -3.7964  -3.6867  -3.4729  -3.2503  -3.2287  -3.0743
    -3.0375  -2.9023  -2.3917  -2.2505  -2.2220  -2.2057  -2.1465  -1.7456
    -1.5115  -1.4742  -1.3957  -1.0315  -0.8592  -0.8198  -0.6165  -0.4458
    -0.4126  -0.3192  -0.1499   0.0314   0.1877   0.4062   0.6764   0.7572
     0.8284   1.1144   1.1859   1.2474   1.3556   1.3815   1.4741   1.6051

          k = 0.0417 0.3608 0.0000 (192862 PWs)   bands (ev):

   -53.5850 -25.5156 -25.5004 -25.4991 -10.2110  -9.1847  -8.8342  -8.5854
    -7.8157  -7.5943  -7.5695  -7.5359  -6.5827  -6.2430  -6.1799  -5.9988
    -5.9346  -5.3360  -5.2415  -5.0007  -4.9576  -4.5462  -4.0640  -3.9885
    -3.9424  -3.7452  -3.6469  -3.5671  -3.4157  -3.1100  -2.9701  -2.9230
    -2.7843  -2.6531  -2.4394  -2.0519  -2.0301  -1.7538  -1.6795  -1.6281
    -1.6037  -1.5239  -1.3949  -1.2773  -1.0377  -1.0099  -0.9775  -0.5740
    -0.4740  -0.2029   0.0570   0.2756   0.2942   0.3420   0.7748   0.8772
     0.9644   1.1309   1.2316   1.2399   1.4181   1.4262   1.4935   1.8404

          k = 0.0417 0.5052 0.0000 (192883 PWs)   bands (ev):

   -53.5850 -25.5156 -25.5004 -25.4991 -10.0225  -8.9972  -8.6475  -8.3990
    -8.1509  -7.6300  -7.3842  -7.3500  -7.1359  -6.7940  -6.5487  -5.9961
    -5.7884  -5.7511  -5.5459  -5.5051  -5.1495  -4.3655  -4.1782  -3.9399
    -3.8839  -3.8059  -3.5639  -3.3884  -3.3218  -3.0510  -2.9321  -2.7431
    -2.5755  -2.1328  -2.1226  -2.0685  -2.0141  -1.8560  -1.6576  -1.5456
    -1.4547  -1.4120  -1.2316  -1.2166  -1.1009  -0.9791  -0.6054  -0.4802
    -0.4106  -0.0547  -0.0302   0.3898   0.4412   0.6030   0.8934   0.9306
     0.9343   1.0985   1.1552   1.3834   1.5710   1.6692   1.9670   2.2416

          k = 0.0417 0.6495 0.0000 (192942 PWs)   bands (ev):

   -53.5850 -25.5156 -25.5004 -25.4992  -9.7715  -8.7476  -8.6476  -8.3990
    -8.1508  -7.6299  -7.3829  -7.2858  -7.1375  -7.1023  -7.0396  -6.2767
    -6.0333  -5.9942  -5.7510  -5.5067  -4.9035  -4.6575  -4.4166  -4.1250
    -3.8048  -3.6443  -3.5639  -3.3231  -3.1507  -3.0509  -2.6960  -2.5756
    -2.5263  -2.4919  -2.2855  -2.1325  -2.0683  -1.6577  -1.6262  -1.4497
    -1.2310  -1.2137  -0.9855  -0.8701  -0.7913  -0.6193  -0.4799  -0.0710
    -0.0489   0.0643   0.2091   0.3875   0.5336   0.5495   0.8288   0.9307
     1.1730   1.3655   1.5173   1.5783   1.8058   1.8325   1.9635   2.0630

          k = 0.0417 0.7939 0.0000 (192966 PWs)   bands (ev):

   -53.5850 -25.5156 -25.5004 -25.4992  -9.4585  -9.0836  -8.4362  -8.0889
    -8.0634  -7.8413  -7.7176  -7.4707  -7.0746  -6.8298  -6.7936  -6.7055
    -6.4614  -6.4237  -5.4461  -5.2026  -5.0811  -4.8387  -4.5961  -4.2285
    -3.8252  -3.4667  -3.3457  -3.2658  -3.0270  -2.9885  -2.9103  -2.8545
    -2.6751  -2.5031  -2.4021  -2.2122  -2.0533  -1.8549  -1.3458  -1.1330
    -1.0341  -0.9326  -0.7059  -0.6044  -0.5966  -0.4042  -0.2918  -0.1121
    -0.1053   0.2986   0.4570   0.5053   0.5645   0.8596   1.1983   1.2588
     1.3102   1.4336   1.4598   1.4853   1.7002   1.7563   1.8135   2.0306

          k = 0.0417-0.7939 0.0000 (192966 PWs)   bands (ev):

   -53.5850 -25.5156 -25.5004 -25.4992  -9.4585  -9.0836  -8.4362  -8.0889
    -8.0634  -7.8413  -7.7176  -7.4707  -7.0746  -6.8298  -6.7936  -6.7055
    -6.4614  -6.4237  -5.4461  -5.2026  -5.0811  -4.8387  -4.5961  -4.2285
    -3.8252  -3.4667  -3.3457  -3.2658  -3.0270  -2.9885  -2.9103  -2.8545
    -2.6751  -2.5031  -2.4021  -2.2122  -2.0533  -1.8549  -1.3458  -1.1330
    -1.0341  -0.9326  -0.7059  -0.6044  -0.5966  -0.4042  -0.2918  -0.1121
    -0.1053   0.2986   0.4570   0.5053   0.5645   0.8596   1.1983   1.2588
     1.3102   1.4336   1.4598   1.4853   1.7002   1.7563   1.8135   2.0306

          k = 0.0417-0.6495 0.0000 (192942 PWs)   bands (ev):

   -53.5850 -25.5156 -25.5004 -25.4992  -9.7715  -8.7476  -8.6476  -8.3990
    -8.1508  -7.6299  -7.3829  -7.2858  -7.1375  -7.1023  -7.0396  -6.2767
    -6.0333  -5.9942  -5.7510  -5.5067  -4.9035  -4.6575  -4.4166  -4.1250
    -3.8048  -3.6443  -3.5639  -3.3231  -3.1507  -3.0509  -2.6960  -2.5756
    -2.5263  -2.4919  -2.2855  -2.1325  -2.0683  -1.6577  -1.6262  -1.4497
    -1.2310  -1.2137  -0.9855  -0.8701  -0.7913  -0.6193  -0.4799  -0.0710
    -0.0489   0.0643   0.2091   0.3875   0.5336   0.5495   0.8288   0.9307
     1.1730   1.3655   1.5173   1.5783   1.8058   1.8325   1.9635   2.0630

          k = 0.0417-0.5052 0.0000 (192883 PWs)   bands (ev):

   -53.5850 -25.5156 -25.5004 -25.4991 -10.0225  -8.9972  -8.6475  -8.3990
    -8.1509  -7.6300  -7.3842  -7.3500  -7.1359  -6.7940  -6.5487  -5.9961
    -5.7884  -5.7511  -5.5459  -5.5051  -5.1495  -4.3655  -4.1782  -3.9399
    -3.8839  -3.8059  -3.5639  -3.3884  -3.3218  -3.0510  -2.9321  -2.7431
    -2.5755  -2.1328  -2.1226  -2.0685  -2.0141  -1.8560  -1.6576  -1.5456
    -1.4547  -1.4120  -1.2316  -1.2166  -1.1009  -0.9791  -0.6054  -0.4802
    -0.4106  -0.0547  -0.0302   0.3898   0.4412   0.6030   0.8934   0.9306
     0.9343   1.0985   1.1552   1.3834   1.5710   1.6692   1.9670   2.2416

          k = 0.0417-0.3608 0.0000 (192862 PWs)   bands (ev):

   -53.5850 -25.5156 -25.5004 -25.4991 -10.2110  -9.1847  -8.8342  -8.5854
    -7.8157  -7.5943  -7.5695  -7.5359  -6.5827  -6.2430  -6.1799  -5.9988
    -5.9346  -5.3360  -5.2415  -5.0007  -4.9576  -4.5462  -4.0640  -3.9885
    -3.9424  -3.7452  -3.6469  -3.5671  -3.4157  -3.1100  -2.9701  -2.9230
    -2.7843  -2.6531  -2.4394  -2.0519  -2.0301  -1.7538  -1.6795  -1.6281
    -1.6037  -1.5239  -1.3949  -1.2773  -1.0377  -1.0099  -0.9775  -0.5740
    -0.4740  -0.2029   0.0570   0.2756   0.2942   0.3420   0.7748   0.8772
     0.9644   1.1309   1.2316   1.2399   1.4181   1.4262   1.4935   1.8404

          k = 0.0417-0.2165 0.0000 (192942 PWs)   bands (ev):

   -53.5850 -25.5156 -25.5004 -25.4991 -10.3369  -9.3098  -8.9589  -8.7098
    -7.9396  -7.6933  -7.6602  -6.9782  -6.3028  -6.0573  -5.9706  -5.6335
    -5.4594  -5.3906  -4.7844  -4.6668  -4.6390  -4.4004  -4.3542  -4.1842
    -4.1094  -3.8661  -3.7964  -3.6867  -3.4729  -3.2503  -3.2287  -3.0743
    -3.0375  -2.9023  -2.3917  -2.2505  -2.2220  -2.2057  -2.1465  -1.7456
    -1.5115  -1.4742  -1.3957  -1.0315  -0.8592  -0.8198  -0.6165  -0.4458
    -0.4126  -0.3192  -0.1499   0.0314   0.1877   0.4062   0.6764   0.7572
     0.8284   1.1144   1.1859   1.2474   1.3556   1.3815   1.4741   1.6051

          k = 0.0417-0.0722 0.0000 (192948 PWs)   bands (ev):

   -53.5850 -25.5156 -25.5004 -25.4991 -10.3998  -9.3725  -9.0212  -8.7720
    -8.0016  -7.7551  -7.7224  -6.3643  -6.3038  -6.1185  -5.5722  -5.5214
    -5.3011  -4.9675  -4.7273  -4.7270  -4.5759  -4.2444  -4.2443  -4.1708
    -4.0205  -3.9677  -3.9269  -3.7473  -3.7465  -3.6957  -3.2887  -3.2880
    -3.1022  -3.0768  -2.9875  -2.3603  -2.2077  -2.2021  -1.8074  -1.6095
    -1.5660  -1.4603  -1.4532  -1.2892  -1.1167  -0.7030  -0.3922  -0.2687
    -0.1292  -0.0780   0.1264   0.1410   0.3058   0.3310   0.6212   0.6251
     0.7405   0.7690   0.8511   0.8600   1.0612   1.0907   1.3249   1.4336

          k = 0.1250 0.0722 0.0000 (192973 PWs)   bands (ev):

   -53.5850 -25.5156 -25.5004 -25.4991 -10.3788  -9.3516  -9.2500  -8.5025
    -8.2290  -7.7036  -7.4854  -6.5897  -6.2834  -5.8536  -5.5520  -5.5005
    -5.2810  -5.1893  -5.1884  -4.5561  -4.4932  -4.4368  -4.3936  -4.2028
    -4.1992  -3.7476  -3.7464  -3.6822  -3.6617  -3.5133  -3.4756  -3.0814
    -2.9700  -2.9072  -2.9057  -2.4746  -2.4684  -2.1104  -2.0167  -1.6025
    -1.5180  -1.3625  -1.3188  -1.0783  -1.0692  -0.8640  -0.5141  -0.3853
    -0.2678  -0.2569  -0.1571   0.2569   0.2999   0.4211   0.4941   0.6452
     0.7812   1.0172   1.0398   1.1006   1.1096   1.1195   1.2970   1.5664

          k = 0.1250 0.2165 0.0000 (192926 PWs)   bands (ev):

   -53.5850 -25.5156 -25.5004 -25.4991 -10.3159  -9.2890  -9.1876  -8.4404
    -8.1669  -7.6414  -7.4236  -6.9577  -6.5281  -5.9506  -5.8565  -5.7923
    -5.4384  -5.1283  -5.1282  -4.8593  -4.7643  -4.3422  -4.3256  -4.1411
    -4.1408  -3.7774  -3.6871  -3.6868  -3.6055  -3.2927  -3.0211  -2.9732
    -2.8484  -2.8477  -2.4128  -2.4116  -2.2423  -2.1912  -2.0127  -1.9563
    -1.9064  -1.2631  -1.0193  -1.0118  -0.9700  -0.9328  -0.5880  -0.3329
    -0.2463  -0.2109  -0.2051  -0.0354   0.0475   0.4305   0.4474   0.7038
     1.0877   1.1129   1.1482   1.1669   1.2662   1.2978   1.3537   1.6210

          k = 0.1250 0.3608 0.0000 (192891 PWs)   bands (ev):

   -53.5850 -25.5156 -25.5004 -25.4991 -10.1901  -9.1639  -9.0627  -8.3162
    -8.0428  -7.5736  -7.5171  -7.3002  -6.5624  -6.4671  -6.4049  -5.7348
    -5.6701  -5.4642  -5.3146  -5.0071  -4.9389  -4.7381  -4.2107  -4.0209
    -3.9228  -3.8619  -3.5673  -3.4855  -3.1746  -2.9524  -2.9038  -2.8539
    -2.7652  -2.7308  -2.4961  -2.2931  -2.2381  -1.8958  -1.8409  -1.6989
    -1.6869  -1.2712  -1.1479  -1.0890  -0.9311  -0.8972  -0.8195  -0.4591
    -0.2031  -0.1833  -0.1311  -0.0971   0.1006   0.5067   0.7097   0.8296
     1.0456   1.1932   1.2292   1.2659   1.3876   1.4653   1.7531   1.9305

          k = 0.1250 0.5052 0.0000 (192912 PWs)   bands (ev):

   -53.5850 -25.5156 -25.5004 -25.4991 -10.0016  -8.9764  -8.8757  -8.1307
    -8.1297  -7.8568  -7.3312  -7.1174  -7.1132  -7.0191  -6.2836  -6.2208
    -6.0117  -5.4930  -5.4806  -5.2815  -5.1286  -4.8256  -4.3976  -4.0277
    -3.8413  -3.6835  -3.3878  -3.3168  -3.2904  -3.0625  -2.9954  -2.7237
    -2.5556  -2.2895  -2.1172  -2.1138  -2.0620  -2.0504  -1.6632  -1.6166
    -1.5179  -1.2047  -0.9943  -0.9530  -0.9388  -0.7516  -0.7230  -0.4197
    -0.2185  -0.1934  -0.0236   0.0570   0.2275   0.6709   0.8869   0.9857
     1.2179   1.3139   1.3892   1.4061   1.5254   1.6348   1.9234   2.1163

          k = 0.1250 0.6495 0.0000 (192967 PWs)   bands (ev):

   -53.5850 -25.5156 -25.5004 -25.4992  -9.7507  -8.7268  -8.6272  -8.6264
    -7.8825  -7.6116  -7.6070  -7.5118  -7.0835  -6.8691  -6.7734  -6.5011
    -5.9811  -5.9695  -5.7674  -5.2433  -4.8891  -4.8726  -4.5841  -4.1571
    -3.7977  -3.7714  -3.6025  -3.5046  -3.1490  -3.0660  -2.7207  -2.5426
    -2.4865  -2.3229  -2.1174  -2.0578  -2.0479  -1.8798  -1.4528  -1.4052
    -1.3850  -1.1400  -0.9701  -0.7393  -0.7196  -0.5433  -0.4960  -0.0940
     0.0230   0.1780   0.1973   0.2358   0.4567   0.7747   0.9987   1.0713
     1.1461   1.2854   1.5822   1.5961   1.6183   1.7271   1.7924   2.1358

          k = 0.1250 0.7939 0.0000 (192964 PWs)   bands (ev):

   -53.5850 -25.5156 -25.5004 -25.4992  -9.4376  -9.0628  -8.4155  -8.3162
    -8.0428  -7.9443  -7.5735  -7.3005  -7.2037  -6.9310  -6.7746  -6.5621
    -6.4048  -6.1946  -5.6696  -5.3038  -4.9399  -4.5847  -4.5681  -4.2829
    -4.2081  -3.9227  -3.4848  -3.3053  -3.1265  -2.9505  -2.8515  -2.7716
    -2.4963  -2.4258  -2.1923  -2.0346  -1.8358  -1.6965  -1.5905  -1.2714
    -1.1400  -1.0890  -0.7996  -0.4652  -0.2614  -0.2384  -0.1881  -0.1267
     0.0988   0.1991   0.4350   0.5012   0.6940   0.8783   1.0473   1.0668
     1.2159   1.2918   1.3469   1.6416   1.7534   1.7687   1.9901   2.1022

          k = 0.1250-0.7939 0.0000 (192964 PWs)   bands (ev):

   -53.5850 -25.5156 -25.5004 -25.4992  -9.4376  -9.0628  -8.4155  -8.3162
    -8.0428  -7.9443  -7.5735  -7.3005  -7.2037  -6.9310  -6.7746  -6.5621
    -6.4048  -6.1946  -5.6696  -5.3038  -4.9399  -4.5847  -4.5681  -4.2829
    -4.2081  -3.9227  -3.4848  -3.3053  -3.1265  -2.9505  -2.8515  -2.7716
    -2.4963  -2.4258  -2.1923  -2.0346  -1.8358  -1.6965  -1.5905  -1.2714
    -1.1400  -1.0890  -0.7996  -0.4652  -0.2614  -0.2384  -0.1881  -0.1267
     0.0988   0.1991   0.4350   0.5012   0.6940   0.8783   1.0473   1.0668
     1.2159   1.2918   1.3469   1.6416   1.7534   1.7687   1.9901   2.1022

          k = 0.1250-0.6495 0.0000 (192967 PWs)   bands (ev):

   -53.5850 -25.5156 -25.5004 -25.4992  -9.7507  -8.7268  -8.6272  -8.6264
    -7.8825  -7.6116  -7.6070  -7.5118  -7.0835  -6.8691  -6.7734  -6.5011
    -5.9811  -5.9695  -5.7674  -5.2433  -4.8891  -4.8726  -4.5841  -4.1571
    -3.7977  -3.7714  -3.6025  -3.5046  -3.1490  -3.0660  -2.7207  -2.5426
    -2.4865  -2.3229  -2.1174  -2.0578  -2.0479  -1.8798  -1.4528  -1.4052
    -1.3850  -1.1400  -0.9701  -0.7393  -0.7196  -0.5433  -0.4960  -0.0940
     0.0230   0.1780   0.1973   0.2358   0.4567   0.7747   0.9987   1.0713
     1.1461   1.2854   1.5822   1.5961   1.6183   1.7271   1.7924   2.1358

          k = 0.1250-0.5052 0.0000 (192912 PWs)   bands (ev):

   -53.5850 -25.5156 -25.5004 -25.4991 -10.0016  -8.9764  -8.8757  -8.1307
    -8.1297  -7.8568  -7.3312  -7.1174  -7.1132  -7.0191  -6.2836  -6.2208
    -6.0117  -5.4930  -5.4806  -5.2815  -5.1286  -4.8256  -4.3976  -4.0277
    -3.8413  -3.6835  -3.3878  -3.3168  -3.2904  -3.0625  -2.9954  -2.7237
    -2.5556  -2.2895  -2.1172  -2.1138  -2.0620  -2.0504  -1.6632  -1.6166
    -1.5179  -1.2047  -0.9943  -0.9530  -0.9388  -0.7516  -0.7230  -0.4197
    -0.2185  -0.1934  -0.0236   0.0570   0.2275   0.6709   0.8869   0.9857
     1.2179   1.3139   1.3892   1.4061   1.5254   1.6348   1.9234   2.1163

          k = 0.1250-0.3608 0.0000 (192891 PWs)   bands (ev):

   -53.5850 -25.5156 -25.5004 -25.4991 -10.1901  -9.1639  -9.0627  -8.3162
    -8.0428  -7.5736  -7.5171  -7.3002  -6.5624  -6.4671  -6.4049  -5.7348
    -5.6701  -5.4642  -5.3146  -5.0071  -4.9389  -4.7381  -4.2107  -4.0209
    -3.9228  -3.8619  -3.5673  -3.4855  -3.1746  -2.9524  -2.9038  -2.8539
    -2.7652  -2.7308  -2.4961  -2.2931  -2.2381  -1.8958  -1.8409  -1.6989
    -1.6869  -1.2712  -1.1479  -1.0890  -0.9311  -0.8972  -0.8195  -0.4591
    -0.2031  -0.1833  -0.1311  -0.0971   0.1006   0.5067   0.7097   0.8296
     1.0456   1.1932   1.2292   1.2659   1.3876   1.4653   1.7531   1.9305

          k = 0.1250-0.2165 0.0000 (192926 PWs)   bands (ev):

   -53.5850 -25.5156 -25.5004 -25.4991 -10.3159  -9.2890  -9.1876  -8.4404
    -8.1669  -7.6414  -7.4236  -6.9577  -6.5281  -5.9506  -5.8565  -5.7923
    -5.4384  -5.1283  -5.1282  -4.8593  -4.7643  -4.3422  -4.3256  -4.1411
    -4.1408  -3.7774  -3.6871  -3.6868  -3.6055  -3.2927  -3.0211  -2.9732
    -2.8484  -2.8477  -2.4128  -2.4116  -2.2423  -2.1912  -2.0127  -1.9563
    -1.9064  -1.2631  -1.0193  -1.0118  -0.9700  -0.9328  -0.5880  -0.3329
    -0.2463  -0.2109  -0.2051  -0.0354   0.0475   0.4305   0.4474   0.7038
     1.0877   1.1129   1.1482   1.1669   1.2662   1.2978   1.3537   1.6210

          k = 0.1250-0.0722 0.0000 (192973 PWs)   bands (ev):

   -53.5850 -25.5156 -25.5004 -25.4991 -10.3788  -9.3516  -9.2500  -8.5025
    -8.2290  -7.7036  -7.4854  -6.5897  -6.2834  -5.8536  -5.5520  -5.5005
    -5.2810  -5.1893  -5.1884  -4.5561  -4.4932  -4.4368  -4.3936  -4.2028
    -4.1992  -3.7476  -3.7464  -3.6822  -3.6617  -3.5133  -3.4756  -3.0814
    -2.9700  -2.9072  -2.9057  -2.4746  -2.4684  -2.1104  -2.0167  -1.6025
    -1.5180  -1.3625  -1.3188  -1.0783  -1.0692  -0.8640  -0.5141  -0.3853
    -0.2678  -0.2569  -0.1571   0.2569   0.2999   0.4211   0.4941   0.6452
     0.7812   1.0172   1.0398   1.1006   1.1096   1.1195   1.2970   1.5664

          k = 0.2083 0.0722 0.0000 (192934 PWs)   bands (ev):

   -53.5850 -25.5156 -25.5004 -25.4991 -10.3369  -9.4584  -9.3098  -8.4362
    -8.2128  -7.6620  -7.1976  -6.7951  -6.2427  -5.6336  -5.5705  -5.5114
    -5.4575  -5.3906  -5.2405  -4.6670  -4.6409  -4.5949  -4.5156  -4.3990
    -4.1841  -3.6870  -3.6391  -3.4730  -3.3888  -3.2502  -3.2285  -3.0745
    -3.0371  -2.9341  -2.9021  -2.3913  -2.2256  -2.2082  -2.1447  -1.7322
    -1.6049  -1.4007  -1.0597  -0.9938  -0.8921  -0.8569  -0.8186  -0.4488
    -0.4150  -0.3792  -0.3147   0.0948   0.1892   0.4957   0.6267   0.6756
     0.8454   0.8627   0.9368   1.1443   1.3507   1.4437   1.4757   1.5998

          k = 0.2083 0.2165 0.0000 (192892 PWs)   bands (ev):

   -53.5850 -25.5156 -25.5004 -25.4991 -10.2739  -9.3959  -9.2472  -8.3740
    -8.1509  -7.5999  -7.1359  -6.9167  -6.7334  -6.0598  -5.9098  -5.5727
    -5.5093  -5.3954  -5.0603  -4.8465  -4.7242  -4.5805  -4.5335  -4.2951
    -3.9016  -3.8465  -3.7383  -3.4755  -3.3285  -3.1909  -3.0149  -2.9779
    -2.9584  -2.7126  -2.3643  -2.2447  -2.1931  -2.1704  -2.1595  -2.1368
    -1.8114  -1.3411  -1.1733  -1.0429  -0.9929  -0.7608  -0.3846  -0.2916
    -0.2611  -0.2091  -0.0004   0.0301   0.1231   0.2895   0.3860   0.5553
     0.8915   0.9073   0.9528   1.0854   1.2027   1.2796   1.5303   1.6497

          k = 0.2083 0.3608 0.0000 (192925 PWs)   bands (ev):

   -53.5850 -25.5156 -25.5004 -25.4991 -10.1482  -9.2709  -9.1221  -8.2497
    -8.0269  -7.5325  -7.4757  -7.0128  -6.6714  -6.6102  -6.5212  -5.6666
    -5.4514  -5.4510  -5.3873  -5.2717  -4.8985  -4.4601  -4.4578  -4.4110
    -4.0590  -3.8835  -3.2096  -3.0732  -3.0717  -2.9537  -2.9018  -2.8922
    -2.8877  -2.8563  -2.7267  -2.1331  -2.0501  -2.0432  -2.0287  -2.0209
    -1.6610  -1.3265  -0.8868  -0.7245  -0.6527  -0.6436  -0.6237  -0.4333
    -0.2795  -0.2621  -0.2580  -0.1396   0.2456   0.4843   0.6592   0.6838
     0.8188   1.0220   1.2991   1.3158   1.6005   1.6246   1.6502   1.7468

          k = 0.2083 0.5052 0.0000 (192924 PWs)   bands (ev):

   -53.5850 -25.5156 -25.5004 -25.4991  -9.9597  -9.0836  -8.9347  -8.0889
    -8.0634  -7.8413  -7.2899  -7.2242  -7.0743  -6.8282  -6.4255  -6.2153
    -5.9986  -5.4460  -5.2690  -5.2046  -5.0863  -4.9987  -4.5978  -4.2792
    -4.2277  -3.4667  -3.4110  -3.2630  -3.0285  -2.9885  -2.8949  -2.7190
    -2.6802  -2.5049  -2.4598  -2.2032  -2.0534  -1.8707  -1.8529  -1.4463
    -1.1329  -1.0345  -0.9705  -0.9331  -0.7971  -0.7017  -0.4794  -0.2962
    -0.1248  -0.1052  -0.0940   0.0340   0.2120   0.4994   0.8372   1.1171
     1.1992   1.3200   1.4744   1.4831   1.6609   1.6720   1.7580   1.8751

          k = 0.2083 0.6495 0.0000 (192946 PWs)   bands (ev):

   -53.5850 -25.5156 -25.5004 -25.4992  -9.7089  -8.8343  -8.6852  -8.5854
    -7.8156  -7.7177  -7.5941  -7.5679  -7.0421  -6.7056  -6.5826  -6.4874
    -6.1798  -5.9343  -5.4837  -5.0815  -5.0265  -4.9615  -4.8396  -4.0391
    -3.9856  -3.9423  -3.8794  -3.7416  -2.9703  -2.9118  -2.7918  -2.6586
    -2.4833  -2.4435  -2.0518  -1.8339  -1.6376  -1.6207  -1.6037  -1.5241
    -1.3870  -1.1207  -1.0118  -0.6349  -0.5731  -0.4797  -0.2684  -0.1242
     0.0637   0.0814   0.2579   0.3419   0.6724   1.0047   1.0522   1.0927
     1.2287   1.2671   1.4152   1.4211   1.4245   1.6878   1.8589   1.9161

          k = 0.2083 0.7939 0.0000 (192995 PWs)   bands (ev):

   -53.5850 -25.5156 -25.5004 -25.4992  -9.3959  -9.0213  -8.5232  -8.3739
    -8.1509  -8.0013  -7.5062  -7.2858  -7.1361  -6.9167  -6.7334  -6.3639
    -6.2761  -5.9098  -5.8732  -5.5067  -4.7242  -4.6593  -4.5338  -4.3626
    -4.2972  -4.1662  -3.7399  -3.6827  -3.3825  -3.3225  -2.5013  -2.3642
    -2.1946  -2.1719  -2.1383  -2.0133  -1.8555  -1.7943  -1.3453  -1.3271
    -1.0719  -1.0010  -0.9817  -0.2791  -0.2211  -0.2088  -0.1747   0.1216
     0.2701   0.3632   0.3855   0.5294   0.8525   0.8975   0.9012   0.9589
     1.0720   1.2480   1.2966   1.6962   1.7379   1.8146   1.8550   1.9019

          k = 0.2083-0.7939 0.0000 (192995 PWs)   bands (ev):

   -53.5850 -25.5156 -25.5004 -25.4992  -9.3959  -9.0213  -8.5232  -8.3739
    -8.1509  -8.0013  -7.5062  -7.2858  -7.1361  -6.9167  -6.7334  -6.3639
    -6.2761  -5.9098  -5.8732  -5.5067  -4.7242  -4.6593  -4.5338  -4.3626
    -4.2972  -4.1662  -3.7399  -3.6827  -3.3825  -3.3225  -2.5013  -2.3642
    -2.1946  -2.1719  -2.1383  -2.0133  -1.8555  -1.7943  -1.3453  -1.3271
    -1.0719  -1.0010  -0.9817  -0.2791  -0.2211  -0.2088  -0.1747   0.1216
     0.2701   0.3632   0.3855   0.5294   0.8525   0.8975   0.9012   0.9589
     1.0720   1.2480   1.2966   1.6962   1.7379   1.8146   1.8550   1.9019

          k = 0.2083-0.6495 0.0000 (192946 PWs)   bands (ev):

   -53.5850 -25.5156 -25.5004 -25.4992  -9.7089  -8.8343  -8.6852  -8.5854
    -7.8156  -7.7177  -7.5941  -7.5679  -7.0421  -6.7056  -6.5826  -6.4874
    -6.1798  -5.9343  -5.4837  -5.0815  -5.0265  -4.9615  -4.8396  -4.0391
    -3.9856  -3.9423  -3.8794  -3.7416  -2.9703  -2.9118  -2.7918  -2.6586
    -2.4833  -2.4435  -2.0518  -1.8339  -1.6376  -1.6207  -1.6037  -1.5241
    -1.3870  -1.1207  -1.0118  -0.6349  -0.5731  -0.4797  -0.2684  -0.1242
     0.0637   0.0814   0.2579   0.3419   0.6724   1.0047   1.0522   1.0927
     1.2287   1.2671   1.4152   1.4211   1.4245   1.6878   1.8589   1.9161

          k = 0.2083-0.5052 0.0000 (192924 PWs)   bands (ev):

   -53.5850 -25.5156 -25.5004 -25.4991  -9.9597  -9.0836  -8.9347  -8.0889
    -8.0634  -7.8413  -7.2899  -7.2242  -7.0743  -6.8282  -6.4255  -6.2153
    -5.9986  -5.4460  -5.2690  -5.2046  -5.0863  -4.9987  -4.5978  -4.2792
    -4.2277  -3.4667  -3.4110  -3.2630  -3.0285  -2.9885  -2.8949  -2.7190
    -2.6802  -2.5049  -2.4598  -2.2032  -2.0534  -1.8707  -1.8529  -1.4463
    -1.1329  -1.0345  -0.9705  -0.9331  -0.7971  -0.7017  -0.4794  -0.2962
    -0.1248  -0.1052  -0.0940   0.0340   0.2120   0.4994   0.8372   1.1171
     1.1992   1.3200   1.4744   1.4831   1.6609   1.6720   1.7580   1.8751

          k = 0.2083-0.3608 0.0000 (192925 PWs)   bands (ev):

   -53.5850 -25.5156 -25.5004 -25.4991 -10.1482  -9.2709  -9.1221  -8.2497
    -8.0269  -7.5325  -7.4757  -7.0128  -6.6714  -6.6102  -6.5212  -5.6666
    -5.4514  -5.4510  -5.3873  -5.2717  -4.8985  -4.4601  -4.4578  -4.4110
    -4.0590  -3.8835  -3.2096  -3.0732  -3.0717  -2.9537  -2.9018  -2.8922
    -2.8877  -2.8563  -2.7267  -2.1331  -2.0501  -2.0432  -2.0287  -2.0209
    -1.6610  -1.3265  -0.8868  -0.7245  -0.6527  -0.6436  -0.6237  -0.4333
    -0.2795  -0.2621  -0.2580  -0.1396   0.2456   0.4843   0.6592   0.6838
     0.8188   1.0220   1.2991   1.3158   1.6005   1.6246   1.6502   1.7468

          k = 0.2083-0.2165 0.0000 (192892 PWs)   bands (ev):

   -53.5850 -25.5156 -25.5004 -25.4991 -10.2739  -9.3959  -9.2472  -8.3740
    -8.1509  -7.5999  -7.1359  -6.9167  -6.7334  -6.0598  -5.9098  -5.5727
    -5.5093  -5.3954  -5.0603  -4.8465  -4.7242  -4.5805  -4.5335  -4.2951
    -3.9016  -3.8465  -3.7383  -3.4755  -3.3285  -3.1909  -3.0149  -2.9779
    -2.9584  -2.7126  -2.3643  -2.2447  -2.1931  -2.1704  -2.1595  -2.1368
    -1.8114  -1.3411  -1.1733  -1.0429  -0.9929  -0.7608  -0.3846  -0.2916
    -0.2611  -0.2091  -0.0004   0.0301   0.1231   0.2895   0.3860   0.5553
     0.8915   0.9073   0.9528   1.0854   1.2027   1.2796   1.5303   1.6497

          k = 0.2083-0.0722 0.0000 (192934 PWs)   bands (ev):

   -53.5850 -25.5156 -25.5004 -25.4991 -10.3369  -9.4584  -9.3098  -8.4362
    -8.2128  -7.6620  -7.1976  -6.7951  -6.2427  -5.6336  -5.5705  -5.5114
    -5.4575  -5.3906  -5.2405  -4.6670  -4.6409  -4.5949  -4.5156  -4.3990
    -4.1841  -3.6870  -3.6391  -3.4730  -3.3888  -3.2502  -3.2285  -3.0745
    -3.0371  -2.9341  -2.9021  -2.3913  -2.2256  -2.2082  -2.1447  -1.7322
    -1.6049  -1.4007  -1.0597  -0.9938  -0.8921  -0.8569  -0.8186  -0.4488
    -0.4150  -0.3792  -0.3147   0.0948   0.1892   0.4957   0.6267   0.6756
     0.8454   0.8627   0.9368   1.1443   1.3507   1.4437   1.4757   1.5998

          k = 0.2917 0.0722 0.0000 (192893 PWs)   bands (ev):

   -53.5850 -25.5156 -25.5004 -25.4991 -10.2739  -9.6462  -9.2472  -8.6229
    -7.9032  -7.5999  -6.9805  -6.8897  -6.1816  -6.0598  -5.5727  -5.4510
    -5.4006  -5.2611  -5.1801  -5.0605  -4.8466  -4.7802  -4.5783  -4.4561
    -3.9016  -3.8465  -3.5810  -3.4754  -3.1911  -3.1025  -3.0131  -2.9721
    -2.9586  -2.8817  -2.7126  -2.3877  -2.2410  -2.1616  -2.1202  -1.8114
    -1.6673  -1.2321  -1.2018  -1.1680  -1.0396  -0.7958  -0.7552  -0.4914
    -0.3811  -0.2862  -0.2508   0.0004   0.0326   0.3116   0.3542   0.5215
     0.8933   0.9694   1.0802   1.1403   1.1532   1.2560   1.3042   1.5283

          k = 0.2917 0.2165 0.0000 (192850 PWs)   bands (ev):

   -53.5850 -25.5156 -25.5004 -25.4991 -10.2111  -9.5836  -9.1847  -8.5606
    -7.8413  -7.5378  -6.9187  -6.8553  -6.8282  -6.2429  -5.9987  -5.8489
    -5.3390  -5.2414  -5.2002  -4.9999  -4.7188  -4.6640  -4.5461  -4.2356
    -4.0639  -3.6800  -3.6473  -3.5674  -3.4158  -3.1103  -3.0413  -2.9128
    -2.7585  -2.6532  -2.4396  -2.3294  -2.2035  -2.1124  -2.0274  -1.7532
    -1.6856  -1.6714  -1.2827  -1.0373  -0.9782  -0.7304  -0.6177  -0.2352
    -0.1700   0.0569   0.0655   0.2209   0.2805   0.3053   0.3718   0.4115
     0.5638   0.6404   0.7819   0.9176   1.1392   1.2080   1.3615   1.5966

          k = 0.2917 0.3608 0.0000 (192930 PWs)   bands (ev):

   -53.5850 -25.5156 -25.5004 -25.4991 -10.0853  -9.4584  -9.0596  -8.4362
    -7.7177  -7.4708  -7.4136  -6.8554  -6.7951  -6.7053  -6.4600  -5.8768
    -5.8492  -5.2154  -5.1480  -5.0786  -4.8789  -4.8380  -4.5959  -4.2376
    -4.1586  -3.8252  -3.3457  -3.2972  -3.2342  -2.9250  -2.8550  -2.7968
    -2.6818  -2.6571  -2.5345  -2.4024  -2.2176  -2.1715  -2.1513  -1.6364
    -1.4732  -1.3451  -0.8671  -0.6432  -0.6100  -0.5987  -0.4716  -0.4053
    -0.1917  -0.1125  -0.0957   0.1699   0.2949   0.3497   0.4878   0.5307
     0.5655   1.0974   1.2387   1.2644   1.3191   1.4348   1.4760   1.5191

          k = 0.2917 0.5052 0.0000 (192991 PWs)   bands (ev):

   -53.5850 -25.5156 -25.5004 -25.4991  -9.8970  -9.2709  -8.8723  -8.2497
    -8.0270  -7.5324  -7.4091  -7.2278  -7.0128  -6.6103  -6.5212  -6.3989
    -5.6941  -5.6939  -5.3851  -5.0298  -4.8966  -4.7787  -4.6974  -4.6971
    -4.4119  -3.8834  -3.2096  -3.1196  -3.1165  -2.9536  -2.8880  -2.7439
    -2.6360  -2.6061  -2.3569  -2.3565  -2.0346  -2.0215  -1.4651  -1.4598
    -1.3266  -0.8859  -0.7333  -0.7000  -0.6870  -0.6241  -0.4402  -0.2655
    -0.1736   0.0778   0.2460   0.3295   0.3355   0.4324   0.6613   0.6998
     1.0239   1.2990   1.3813   1.3993   1.4797   1.6447   1.8781   1.9475

          k = 0.2917 0.6495 0.0000 (192996 PWs)   bands (ev):

   -53.5850 -25.5156 -25.5004 -25.4992  -9.6462  -9.0212  -8.6229  -8.5232
    -8.0014  -7.9031  -7.5062  -7.2858  -6.9804  -6.8898  -6.3641  -6.2762
    -6.1816  -5.8731  -5.4507  -5.2635  -5.1802  -4.7834  -4.6543  -4.4564
    -4.3625  -4.1684  -3.6868  -3.5779  -3.3814  -3.0882  -2.8836  -2.5087
    -2.3801  -2.1202  -2.0134  -1.8556  -1.7968  -1.6685  -1.3354  -1.2316
    -1.1923  -1.0717  -0.9979  -0.7737  -0.4878  -0.2669  -0.2151  -0.1749
     0.2795   0.3280   0.3667   0.5219   0.8744   0.9071   0.9228   1.0709
     1.1448   1.2324   1.2644   1.3144   1.6626   1.7302   1.7610   1.8136

          k = 0.2917 0.7939 0.0000 (193052 PWs)   bands (ev):

   -53.5850 -25.5156 -25.5004 -25.4992  -9.3334  -8.9589  -8.7098  -8.3369
    -8.3118  -7.9394  -7.6917  -7.3210  -6.9782  -6.6718  -6.6099  -6.3024
    -6.0570  -5.9705  -5.6898  -5.6050  -5.1473  -4.7843  -4.4779  -4.3530
    -4.1561  -4.1105  -3.9930  -3.8648  -3.7965  -3.5027  -2.5922  -2.2499
    -2.2217  -2.0883  -1.8877  -1.8256  -1.7343  -1.5039  -1.4742  -1.1554
    -1.0312  -0.9487  -0.6163  -0.3903  -0.3418  -0.1510   0.0134   0.1908
     0.3950   0.4273   0.5659   0.7100   0.7725   0.7856   0.9353   1.1141
     1.1645   1.1905   1.2510   1.3607   1.5208   1.6975   1.7356   1.9360

          k = 0.2917-0.7939 0.0000 (193052 PWs)   bands (ev):

   -53.5850 -25.5156 -25.5004 -25.4992  -9.3334  -8.9589  -8.7098  -8.3369
    -8.3118  -7.9394  -7.6917  -7.3210  -6.9782  -6.6718  -6.6099  -6.3024
    -6.0570  -5.9705  -5.6898  -5.6050  -5.1473  -4.7843  -4.4779  -4.3530
    -4.1561  -4.1105  -3.9930  -3.8648  -3.7965  -3.5027  -2.5922  -2.2499
    -2.2217  -2.0883  -1.8877  -1.8256  -1.7343  -1.5039  -1.4742  -1.1554
    -1.0312  -0.9487  -0.6163  -0.3903  -0.3418  -0.1510   0.0134   0.1908
     0.3950   0.4273   0.5659   0.7100   0.7725   0.7856   0.9353   1.1141
     1.1645   1.1905   1.2510   1.3607   1.5208   1.6975   1.7356   1.9360

          k = 0.2917-0.6495 0.0000 (192996 PWs)   bands (ev):

   -53.5850 -25.5156 -25.5004 -25.4992  -9.6462  -9.0212  -8.6229  -8.5232
    -8.0014  -7.9031  -7.5062  -7.2858  -6.9804  -6.8898  -6.3641  -6.2762
    -6.1816  -5.8731  -5.4507  -5.2635  -5.1802  -4.7834  -4.6543  -4.4564
    -4.3625  -4.1684  -3.6868  -3.5779  -3.3814  -3.0882  -2.8836  -2.5087
    -2.3801  -2.1202  -2.0134  -1.8556  -1.7968  -1.6685  -1.3354  -1.2316
    -1.1923  -1.0717  -0.9979  -0.7737  -0.4878  -0.2669  -0.2151  -0.1749
     0.2795   0.3280   0.3667   0.5219   0.8744   0.9071   0.9228   1.0709
     1.1448   1.2324   1.2644   1.3144   1.6626   1.7302   1.7610   1.8136

          k = 0.2917-0.5052 0.0000 (192991 PWs)   bands (ev):

   -53.5850 -25.5156 -25.5004 -25.4991  -9.8970  -9.2709  -8.8723  -8.2497
    -8.0270  -7.5324  -7.4091  -7.2278  -7.0128  -6.6103  -6.5212  -6.3989
    -5.6941  -5.6939  -5.3851  -5.0298  -4.8966  -4.7787  -4.6974  -4.6971
    -4.4119  -3.8834  -3.2096  -3.1196  -3.1165  -2.9536  -2.8880  -2.7439
    -2.6360  -2.6061  -2.3569  -2.3565  -2.0346  -2.0215  -1.4651  -1.4598
    -1.3266  -0.8859  -0.7333  -0.7000  -0.6870  -0.6241  -0.4402  -0.2655
    -0.1736   0.0778   0.2460   0.3295   0.3355   0.4324   0.6613   0.6998
     1.0239   1.2990   1.3813   1.3993   1.4797   1.6447   1.8781   1.9475

          k = 0.2917-0.3608 0.0000 (192930 PWs)   bands (ev):

   -53.5850 -25.5156 -25.5004 -25.4991 -10.0853  -9.4584  -9.0596  -8.4362
    -7.7177  -7.4708  -7.4136  -6.8554  -6.7951  -6.7053  -6.4600  -5.8768
    -5.8492  -5.2154  -5.1480  -5.0786  -4.8789  -4.8380  -4.5959  -4.2376
    -4.1586  -3.8252  -3.3457  -3.2972  -3.2342  -2.9250  -2.8550  -2.7968
    -2.6818  -2.6571  -2.5345  -2.4024  -2.2176  -2.1715  -2.1513  -1.6364
    -1.4732  -1.3451  -0.8671  -0.6432  -0.6100  -0.5987  -0.4716  -0.4053
    -0.1917  -0.1125  -0.0957   0.1699   0.2949   0.3497   0.4878   0.5307
     0.5655   1.0974   1.2387   1.2644   1.3191   1.4348   1.4760   1.5191

          k = 0.2917-0.2165 0.0000 (192850 PWs)   bands (ev):

   -53.5850 -25.5156 -25.5004 -25.4991 -10.2111  -9.5836  -9.1847  -8.5606
    -7.8413  -7.5378  -6.9187  -6.8553  -6.8282  -6.2429  -5.9987  -5.8489
    -5.3390  -5.2414  -5.2002  -4.9999  -4.7188  -4.6640  -4.5461  -4.2356
    -4.0639  -3.6800  -3.6473  -3.5674  -3.4158  -3.1103  -3.0413  -2.9128
    -2.7585  -2.6532  -2.4396  -2.3294  -2.2035  -2.1124  -2.0274  -1.7532
    -1.6856  -1.6714  -1.2827  -1.0373  -0.9782  -0.7304  -0.6177  -0.2352
    -0.1700   0.0569   0.0655   0.2209   0.2805   0.3053   0.3718   0.4115
     0.5638   0.6404   0.7819   0.9176   1.1392   1.2080   1.3615   1.5966

          k = 0.2917-0.0722 0.0000 (192893 PWs)   bands (ev):

   -53.5850 -25.5156 -25.5004 -25.4991 -10.2739  -9.6462  -9.2472  -8.6229
    -7.9032  -7.5999  -6.9805  -6.8897  -6.1816  -6.0598  -5.5727  -5.4510
    -5.4006  -5.2611  -5.1801  -5.0605  -4.8466  -4.7802  -4.5783  -4.4561
    -3.9016  -3.8465  -3.5810  -3.4754  -3.1911  -3.1025  -3.0131  -2.9721
    -2.9586  -2.8817  -2.7126  -2.3877  -2.2410  -2.1616  -2.1202  -1.8114
    -1.6673  -1.2321  -1.2018  -1.1680  -1.0396  -0.7958  -0.7552  -0.4914
    -0.3811  -0.2862  -0.2508   0.0004   0.0326   0.3116   0.3542   0.5215
     0.8933   0.9694   1.0802   1.1403   1.1532   1.2560   1.3042   1.5283

          k = 0.3750 0.0722 0.0000 (192872 PWs)   bands (ev):

   -53.5850 -25.5156 -25.5004 -25.4991 -10.1901  -9.8133  -9.1638  -8.7891
    -7.5738  -7.5170  -7.1452  -6.5623  -6.4671  -6.1003  -5.7347  -5.4643
    -5.3701  -5.3169  -5.0997  -5.0072  -4.9489  -4.9337  -4.7381  -4.3766
    -4.0214  -3.8619  -3.5672  -3.5039  -3.1746  -2.9222  -2.8540  -2.8189
    -2.7679  -2.7306  -2.5419  -2.4968  -2.2921  -2.2375  -1.8957  -1.8857
    -1.6905  -1.5437  -1.3453  -0.9345  -0.9001  -0.8202  -0.6160  -0.5792
    -0.4914  -0.2676  -0.1339  -0.1134  -0.0952   0.1828   0.2287   0.5116
     0.7132   0.7353   0.8280   1.0513   1.1675   1.2412   1.3889   1.4927

          k = 0.3750 0.2165 0.0000 (192883 PWs)   bands (ev):

   -53.5850 -25.5156 -25.5004 -25.4991 -10.1273  -9.7506  -9.1013  -8.7268
    -7.5120  -7.4549  -7.0833  -6.7735  -6.5010  -6.4063  -6.4054  -5.7677
    -5.4060  -5.4010  -5.2548  -4.8878  -4.8727  -4.5841  -4.2536  -4.1949
    -4.1562  -3.8075  -3.7967  -3.6031  -3.2776  -3.2355  -3.1488  -2.8606
    -2.7086  -2.4834  -2.3230  -2.1802  -2.1781  -2.0552  -1.8813  -1.8759
    -1.6391  -1.6249  -1.2809  -0.9705  -0.8804  -0.8644  -0.5548  -0.4981
    -0.2151  -0.0511   0.0270   0.1938   0.2801   0.4447   0.5191   0.5634
     0.5737   0.6911   0.7684   0.7823   0.8027   1.0025   1.2223   1.6175

          k = 0.3750 0.3608 0.0000 (192896 PWs)   bands (ev):

   -53.5850 -25.5156 -25.5004 -25.4991 -10.0016  -9.6253  -8.9763  -8.6021
    -7.3893  -7.3881  -7.3309  -7.0192  -6.9596  -6.3806  -6.3762  -6.2835
    -6.0117  -5.2820  -5.1317  -4.8259  -4.7713  -4.7522  -4.7503  -4.3968
    -3.8418  -3.7756  -3.7127  -3.6825  -3.3875  -2.8084  -2.7630  -2.7416
    -2.6021  -2.5867  -2.5542  -2.3672  -2.2833  -2.1140  -2.0613  -1.5162
    -1.4225  -1.2042  -0.8208  -0.7563  -0.7251  -0.4575  -0.4194  -0.2093
    -0.1009   0.0281   0.0594   0.0732   0.2295   0.3414   0.4029   0.6760
     0.7206   0.8840   0.8952   0.9104   1.3200   1.3331   1.4011   1.4399

          k = 0.3750 0.5052 0.0000 (192945 PWs)   bands (ev):

   -53.5850 -25.5156 -25.5004 -25.4991  -9.8134  -9.4375  -8.7891  -8.4154
    -7.9445  -7.5735  -7.2039  -7.1452  -6.9308  -6.7745  -6.5623  -6.1948
    -6.1002  -5.3700  -5.3039  -5.1001  -4.9519  -4.9340  -4.5824  -4.5681
    -4.3765  -4.2829  -3.5038  -3.3059  -3.1287  -2.8514  -2.8219  -2.7778
    -2.5612  -2.4968  -2.4136  -2.1868  -2.0346  -1.8856  -1.5902  -1.5438
    -1.3437  -0.8143  -0.6007  -0.5805  -0.4864  -0.2710  -0.2398  -0.1529
    -0.1230   0.0912   0.1903   0.2426   0.4429   0.5717   0.6971   0.7214
     0.8310   1.0577   1.0766   1.3001   1.4619   1.5021   1.6621   1.8627

          k = 0.3750 0.6495 0.0000 (193025 PWs)   bands (ev):

   -53.5850 -25.5156 -25.5004 -25.4992  -9.5628  -9.1876  -8.5399  -8.4404
    -8.1669  -8.0682  -7.4239  -7.0540  -6.9578  -6.8977  -6.5279  -5.9505
    -5.8564  -5.8561  -5.7914  -5.4256  -4.8584  -4.8574  -4.7643  -4.7001
    -4.3400  -4.3251  -3.7775  -3.6053  -3.2702  -3.2654  -3.2408  -2.3278
    -2.2423  -2.1811  -1.9519  -1.9065  -1.6527  -1.6518  -1.2653  -1.1212
    -1.1139  -0.9697  -0.9104  -0.5875  -0.3677  -0.3557  -0.0506   0.0449
     0.3131   0.4464   0.4686   0.5817   0.7903   0.9415   0.9525   1.1021
     1.1739   1.1980   1.2292   1.2889   1.4873   1.4963   1.5389   1.6155

          k = 0.3750 0.7939 0.0000 (193030 PWs)   bands (ev):

   -53.5850 -25.5156 -25.5004 -25.4992  -9.2501  -8.8763  -8.8753  -8.5025
    -8.2290  -7.8590  -7.8545  -7.4856  -6.6509  -6.5896  -6.2836  -6.2261
    -6.2148  -5.8527  -5.6456  -5.5518  -5.2811  -5.1876  -4.5563  -4.3950
    -4.1957  -4.0478  -4.0263  -4.0143  -3.6793  -3.6599  -2.9715  -2.6234
    -2.0377  -1.8979  -1.6925  -1.6449  -1.5852  -1.3614  -1.3063  -1.0562
    -0.9459  -0.8638  -0.5132  -0.4890  -0.1596   0.0835   0.1402   0.2568
     0.4120   0.4407   0.5569   0.6012   0.7778   0.8415   0.9533   1.0235
     1.0677   1.1354   1.2204   1.5271   1.5490   1.5714   1.5882   1.6930

          k = 0.3750-0.7939 0.0000 (193030 PWs)   bands (ev):

   -53.5850 -25.5156 -25.5004 -25.4992  -9.2501  -8.8763  -8.8753  -8.5025
    -8.2290  -7.8590  -7.8545  -7.4856  -6.6509  -6.5896  -6.2836  -6.2261
    -6.2148  -5.8527  -5.6456  -5.5518  -5.2811  -5.1876  -4.5563  -4.3950
    -4.1957  -4.0478  -4.0263  -4.0143  -3.6793  -3.6599  -2.9715  -2.6234
    -2.0377  -1.8979  -1.6925  -1.6449  -1.5852  -1.3614  -1.3063  -1.0562
    -0.9459  -0.8638  -0.5132  -0.4890  -0.1596   0.0835   0.1402   0.2568
     0.4120   0.4407   0.5569   0.6012   0.7778   0.8415   0.9533   1.0235
     1.0677   1.1354   1.2204   1.5271   1.5490   1.5714   1.5882   1.6930

          k = 0.3750-0.6495 0.0000 (193025 PWs)   bands (ev):

   -53.5850 -25.5156 -25.5004 -25.4992  -9.5628  -9.1876  -8.5399  -8.4404
    -8.1669  -8.0682  -7.4239  -7.0540  -6.9578  -6.8977  -6.5279  -5.9505
    -5.8564  -5.8561  -5.7914  -5.4256  -4.8584  -4.8574  -4.7643  -4.7001
    -4.3400  -4.3251  -3.7775  -3.6053  -3.2702  -3.2654  -3.2408  -2.3278
    -2.2423  -2.1811  -1.9519  -1.9065  -1.6527  -1.6518  -1.2653  -1.1212
    -1.1139  -0.9697  -0.9104  -0.5875  -0.3677  -0.3557  -0.0506   0.0449
     0.3131   0.4464   0.4686   0.5817   0.7903   0.9415   0.9525   1.1021
     1.1739   1.1980   1.2292   1.2889   1.4873   1.4963   1.5389   1.6155

          k = 0.3750-0.5052 0.0000 (192945 PWs)   bands (ev):

   -53.5850 -25.5156 -25.5004 -25.4991  -9.8134  -9.4375  -8.7891  -8.4154
    -7.9445  -7.5735  -7.2039  -7.1452  -6.9308  -6.7745  -6.5623  -6.1948
    -6.1002  -5.3700  -5.3039  -5.1001  -4.9519  -4.9340  -4.5824  -4.5681
    -4.3765  -4.2829  -3.5038  -3.3059  -3.1287  -2.8514  -2.8219  -2.7778
    -2.5612  -2.4968  -2.4136  -2.1868  -2.0346  -1.8856  -1.5902  -1.5438
    -1.3437  -0.8143  -0.6007  -0.5805  -0.4864  -0.2710  -0.2398  -0.1529
    -0.1230   0.0912   0.1903   0.2426   0.4429   0.5717   0.6971   0.7214
     0.8310   1.0577   1.0766   1.3001   1.4619   1.5021   1.6621   1.8627

          k = 0.3750-0.3608 0.0000 (192896 PWs)   bands (ev):

   -53.5850 -25.5156 -25.5004 -25.4991 -10.0016  -9.6253  -8.9763  -8.6021
    -7.3893  -7.3881  -7.3309  -7.0192  -6.9596  -6.3806  -6.3762  -6.2835
    -6.0117  -5.2820  -5.1317  -4.8259  -4.7713  -4.7522  -4.7503  -4.3968
    -3.8418  -3.7756  -3.7127  -3.6825  -3.3875  -2.8084  -2.7630  -2.7416
    -2.6021  -2.5867  -2.5542  -2.3672  -2.2833  -2.1140  -2.0613  -1.5162
    -1.4225  -1.2042  -0.8208  -0.7563  -0.7251  -0.4575  -0.4194  -0.2093
    -0.1009   0.0281   0.0594   0.0732   0.2295   0.3414   0.4029   0.6760
     0.7206   0.8840   0.8952   0.9104   1.3200   1.3331   1.4011   1.4399

          k = 0.3750-0.2165 0.0000 (192883 PWs)   bands (ev):

   -53.5850 -25.5156 -25.5004 -25.4991 -10.1273  -9.7506  -9.1013  -8.7268
    -7.5120  -7.4549  -7.0833  -6.7735  -6.5010  -6.4063  -6.4054  -5.7677
    -5.4060  -5.4010  -5.2548  -4.8878  -4.8727  -4.5841  -4.2536  -4.1949
    -4.1562  -3.8075  -3.7967  -3.6031  -3.2776  -3.2355  -3.1488  -2.8606
    -2.7086  -2.4834  -2.3230  -2.1802  -2.1781  -2.0552  -1.8813  -1.8759
    -1.6391  -1.6249  -1.2809  -0.9705  -0.8804  -0.8644  -0.5548  -0.4981
    -0.2151  -0.0511   0.0270   0.1938   0.2801   0.4447   0.5191   0.5634
     0.5737   0.6911   0.7684   0.7823   0.8027   1.0025   1.2223   1.6175

          k = 0.3750-0.0722 0.0000 (192872 PWs)   bands (ev):

   -53.5850 -25.5156 -25.5004 -25.4991 -10.1901  -9.8133  -9.1638  -8.7891
    -7.5738  -7.5170  -7.1452  -6.5623  -6.4671  -6.1003  -5.7347  -5.4643
    -5.3701  -5.3169  -5.0997  -5.0072  -4.9489  -4.9337  -4.7381  -4.3766
    -4.0214  -3.8619  -3.5672  -3.5039  -3.1746  -2.9222  -2.8540  -2.8189
    -2.7679  -2.7306  -2.5419  -2.4968  -2.2921  -2.2375  -1.8957  -1.8857
    -1.6905  -1.5437  -1.3453  -0.9345  -0.9001  -0.8202  -0.6160  -0.5792
    -0.4914  -0.2676  -0.1339  -0.1134  -0.0952   0.1828   0.2287   0.5116
     0.7132   0.7353   0.8280   1.0513   1.1675   1.2412   1.3889   1.4927

          k = 0.4583 0.0722 0.0000 (192888 PWs)   bands (ev):

   -53.5850 -25.5156 -25.5004 -25.4991 -10.0855  -9.9596  -9.0597  -8.9347
    -7.4140  -7.2896  -7.2242  -6.8554  -6.2154  -5.9988  -5.8766  -5.8492
    -5.2694  -5.2162  -5.1478  -5.0859  -4.9988  -4.8784  -4.5971  -4.2774
    -4.2376  -4.1586  -3.4092  -3.2972  -3.2342  -2.8952  -2.8289  -2.7140
    -2.6756  -2.6600  -2.5344  -2.4582  -2.2033  -2.1778  -2.1525  -1.8666
    -1.6366  -1.4730  -1.4453  -0.9673  -0.8717  -0.7992  -0.6265  -0.4889
    -0.4679  -0.2569  -0.1755  -0.1019  -0.0624   0.1419   0.1701   0.2182
     0.3607   0.5011   1.0960   1.1129   1.1806   1.2642   1.5182   1.6642

          k = 0.4583 0.2165 0.0000 (192855 PWs)   bands (ev):

   -53.5850 -25.5156 -25.5004 -25.4991 -10.0227  -9.8968  -8.9972  -8.8723
    -7.3520  -7.2276  -7.1626  -6.7940  -6.6714  -6.5486  -6.1542  -5.7883
    -5.6664  -5.5448  -5.1540  -5.0239  -4.5368  -4.4845  -4.3653  -4.1775
    -4.0575  -3.9389  -3.8838  -3.5454  -3.4848  -3.3886  -2.9325  -2.7677
    -2.6134  -2.6032  -2.3996  -2.1199  -2.0205  -1.9979  -1.8905  -1.8548
    -1.5436  -1.4140  -1.2966  -1.1058  -0.9085  -0.8238  -0.6072  -0.4162
    -0.3000  -0.1858  -0.0071   0.1989   0.2753   0.3155   0.4160   0.4424
     0.5017   0.6245   0.9012   0.9327   1.1070   1.1542   1.2289   1.2643

          k = 0.4583 0.3608 0.0000 (192914 PWs)   bands (ev):

   -53.5850 -25.5156 -25.5004 -25.4991  -9.8971  -9.7714  -8.8723  -8.7475
    -7.2861  -7.2280  -7.1626  -7.1037  -7.0395  -6.6712  -6.2765  -6.1542
    -6.0320  -5.6664  -5.0311  -4.9010  -4.6572  -4.5367  -4.4843  -4.4157
    -4.1250  -4.0571  -3.6445  -3.5453  -3.4848  -3.1510  -2.6982  -2.6553
    -2.6055  -2.5113  -2.4881  -2.3974  -2.2817  -2.0029  -1.8899  -1.6255
    -1.2966  -0.9089  -0.8756  -0.8231  -0.7918  -0.6200  -0.3019  -0.1510
    -0.0178  -0.0067   0.1096   0.2698   0.3128   0.3241   0.3946   0.5226
     0.5462   0.5524   0.8310   1.1057   1.2638   1.3382   1.5415   1.7247

          k = 0.4583 0.5052 0.0000 (192934 PWs)   bands (ev):

   -53.5850 -25.5156 -25.5004 -25.4991  -9.7090  -9.5834  -8.6852  -8.5606
    -7.8415  -7.7175  -7.0425  -6.9185  -6.8552  -6.8282  -6.7054  -6.4874
    -5.8489  -5.4838  -5.2031  -5.0814  -5.0264  -4.8451  -4.7160  -4.6640
    -4.2353  -4.0372  -3.8774  -3.6799  -3.0334  -2.9102  -2.7587  -2.6585
    -2.4869  -2.4620  -2.3143  -2.2035  -2.1071  -1.8298  -1.6810  -1.6316
    -1.1217  -0.7407  -0.6193  -0.6176  -0.2687  -0.1783  -0.1275   0.0393
     0.0713   0.0837   0.1362   0.2771   0.3744   0.4899   0.5686   0.6401
     0.7006   1.0277   1.0880   1.3436   1.4210   1.4938   1.5951   1.9086

          k = 0.4583 0.6495 0.0000 (193044 PWs)   bands (ev):

   -53.5850 -25.5156 -25.5004 -25.4992  -9.4586  -9.3332  -8.4362  -8.3371
    -8.3118  -8.2127  -7.3210  -7.1977  -6.7953  -6.6715  -6.6098  -6.2426
    -5.6902  -5.6051  -5.5676  -5.5112  -5.2408  -5.1473  -4.6006  -4.5157
    -4.4711  -4.1557  -3.9952  -3.6387  -3.5072  -3.3814  -2.9353  -2.5919
    -2.2344  -2.0784  -1.8777  -1.8259  -1.7320  -1.6021  -1.1794  -1.0328
    -0.9919  -0.9469  -0.8914  -0.3924  -0.3796  -0.3408   0.0910   0.1903
     0.3298   0.4830   0.6267   0.7067   0.7155   0.7962   0.8503   0.8744
     0.9371   1.0832   1.3541   1.4428   1.5082   1.5553   1.6141   1.6379

          k = 0.4583 0.7939 0.0000 (193019 PWs)   bands (ev):

   -53.5850 -25.5156 -25.5004 -25.4992  -9.1462  -9.0211  -8.7722  -8.6474
    -8.1255  -8.0014  -7.7535  -7.6298  -6.4874  -6.3640  -6.3037  -6.1183
    -5.9954  -5.9373  -5.9373  -5.5720  -5.3013  -4.9383  -4.9377  -4.5760
    -4.2956  -4.1667  -3.9282  -3.8015  -3.6962  -3.3416  -3.3410  -2.9893
    -1.9454  -1.7865  -1.6062  -1.5739  -1.4335  -1.3289  -1.3248  -1.1156
    -0.7025  -0.6192  -0.6181  -0.2694  -0.1286   0.1762   0.1769   0.3031
     0.3270   0.4602   0.4779   0.6109   0.7511   0.8649   0.9757   1.0130
     1.0942   1.1584   1.1649   1.2383   1.4029   1.4077   1.4355   1.6365

          k = 0.4583-0.7939 0.0000 (193019 PWs)   bands (ev):

   -53.5850 -25.5156 -25.5004 -25.4992  -9.1462  -9.0211  -8.7722  -8.6474
    -8.1255  -8.0014  -7.7535  -7.6298  -6.4874  -6.3640  -6.3037  -6.1183
    -5.9954  -5.9373  -5.9373  -5.5720  -5.3013  -4.9383  -4.9377  -4.5760
    -4.2956  -4.1667  -3.9282  -3.8015  -3.6962  -3.3416  -3.3410  -2.9893
    -1.9454  -1.7865  -1.6062  -1.5739  -1.4335  -1.3289  -1.3248  -1.1156
    -0.7025  -0.6192  -0.6181  -0.2694  -0.1286   0.1762   0.1769   0.3031
     0.3270   0.4602   0.4779   0.6109   0.7511   0.8649   0.9757   1.0130
     1.0942   1.1584   1.1649   1.2383   1.4029   1.4077   1.4355   1.6365

          k = 0.4583-0.6495 0.0000 (193044 PWs)   bands (ev):

   -53.5850 -25.5156 -25.5004 -25.4992  -9.4586  -9.3332  -8.4362  -8.3371
    -8.3118  -8.2127  -7.3210  -7.1977  -6.7953  -6.6715  -6.6098  -6.2426
    -5.6902  -5.6051  -5.5676  -5.5112  -5.2408  -5.1473  -4.6006  -4.5157
    -4.4711  -4.1557  -3.9952  -3.6387  -3.5072  -3.3814  -2.9353  -2.5919
    -2.2344  -2.0784  -1.8777  -1.8259  -1.7320  -1.6021  -1.1794  -1.0328
    -0.9919  -0.9469  -0.8914  -0.3924  -0.3796  -0.3408   0.0910   0.1903
     0.3298   0.4830   0.6267   0.7067   0.7155   0.7962   0.8503   0.8744
     0.9371   1.0832   1.3541   1.4428   1.5082   1.5553   1.6141   1.6379

          k = 0.4583-0.5052 0.0000 (192934 PWs)   bands (ev):

   -53.5850 -25.5156 -25.5004 -25.4991  -9.7090  -9.5834  -8.6852  -8.5606
    -7.8415  -7.7175  -7.0425  -6.9185  -6.8552  -6.8282  -6.7054  -6.4874
    -5.8489  -5.4838  -5.2031  -5.0814  -5.0264  -4.8451  -4.7160  -4.6640
    -4.2353  -4.0372  -3.8774  -3.6799  -3.0334  -2.9102  -2.7587  -2.6585
    -2.4869  -2.4620  -2.3143  -2.2035  -2.1071  -1.8298  -1.6810  -1.6316
    -1.1217  -0.7407  -0.6193  -0.6176  -0.2687  -0.1783  -0.1275   0.0393
     0.0713   0.0837   0.1362   0.2771   0.3744   0.4899   0.5686   0.6401
     0.7006   1.0277   1.0880   1.3436   1.4210   1.4938   1.5951   1.9086

          k = 0.4583-0.3608 0.0000 (192914 PWs)   bands (ev):

   -53.5850 -25.5156 -25.5004 -25.4991  -9.8971  -9.7714  -8.8723  -8.7475
    -7.2861  -7.2280  -7.1626  -7.1037  -7.0395  -6.6712  -6.2765  -6.1542
[...]

     atom    1 type  1   force =     0.00001404    0.00000000   -0.00166998
     atom    2 type  1   force =     0.00089141    0.00000000   -0.00386378
     atom    3 type  1   force =    -0.00072039    0.00000000    0.00441584
     atom    4 type  1   force =    -0.00007815   -0.00000000    0.00099941
     atom    5 type  1   force =     0.00075360   -0.00000000    0.00460460
     atom    6 type  1   force =     0.00003674    0.00000000    0.00336035
     atom    7 type  1   force =    -0.00083673   -0.00000000   -0.00420663
     atom    8 type  1   force =    -0.00004359    0.00012926    0.00456086
     atom    9 type  1   force =     0.00071375   -0.00035435    0.00228188
     atom   10 type  1   force =    -0.00029888   -0.00001196   -0.00345345
     atom   11 type  1   force =     0.00047131    0.00004994   -0.00483912
     atom   12 type  1   force =     0.00039288    0.00024584   -0.00459276
     atom   13 type  1   force =    -0.00022965    0.00023464   -0.00487210
     atom   14 type  1   force =    -0.00100806   -0.00010779    0.00255714
     atom   15 type  1   force =     0.00033139    0.00040268    0.00283571
     atom   16 type  1   force =    -0.00004360   -0.00012926    0.00456086
     atom   17 type  1   force =     0.00071375    0.00035435    0.00228188
     atom   18 type  1   force =    -0.00029888    0.00001196   -0.00345345
     atom   19 type  1   force =     0.00047131   -0.00004994   -0.00483912
     atom   20 type  1   force =     0.00039288   -0.00024584   -0.00459276
     atom   21 type  1   force =    -0.00022965   -0.00023464   -0.00487210
     atom   22 type  1   force =    -0.00100806    0.00010779    0.00255714
     atom   23 type  1   force =     0.00033139   -0.00040268    0.00283571
     atom   24 type  1   force =     0.00006201    0.00000000    0.00453572
     atom   25 type  1   force =     0.00042479    0.00000000    0.00331877
     atom   26 type  1   force =    -0.00078103    0.00000000   -0.00446887
     atom   27 type  1   force =    -0.00058542    0.00000000   -0.00810753
     atom   28 type  1   force =     0.00053980   -0.00000000   -0.00366293
     atom   29 type  1   force =     0.00023662   -0.00000000   -0.00200402
     atom   30 type  1   force =     0.00006067    0.00000000    0.00159889
     atom   31 type  1   force =    -0.00065729   -0.00000000    0.00292177
     atom   32 type  1   force =    -0.00002467   -0.00000000    0.01489875
     atom   33 type  2   force =     0.00000574   -0.00000000   -0.00162666
     The non-local contrib.  to forces
     atom    1 type  1   force =     0.00034870   -0.00000000   -0.03741669
     atom    2 type  1   force =    -0.00153796    0.00000000   -0.00334467
     atom    3 type  1   force =     0.00099879    0.00000000    0.00639793
     atom    4 type  1   force =    -0.00015930    0.00000000    0.03745447
     atom    5 type  1   force =    -0.00088136    0.00000000    0.00745779
     atom    6 type  1   force =     0.00002556    0.00000000    0.04139774
     atom    7 type  1   force =     0.00129522    0.00000000   -0.00491011
     atom    8 type  1   force =     0.00166179    0.00021274    0.00732244
     atom    9 type  1   force =     0.00012908    0.00005472    0.03917000
     atom   10 type  1   force =    -0.00024880    0.00049062   -0.00386377
     atom   11 type  1   force =    -0.00065266   -0.00033714   -0.03881831
     atom   12 type  1   force =     0.00005842   -0.00019759   -0.00596387
     atom   13 type  1   force =     0.00026544   -0.00052106   -0.03799856
     atom   14 type  1   force =    -0.00028835    0.00001441    0.03844538
     atom   15 type  1   force =    -0.00136185    0.00016311    0.00342876
     atom   16 type  1   force =     0.00166179   -0.00021274    0.00732244
     atom   17 type  1   force =     0.00012908   -0.00005472    0.03917000
     atom   18 type  1   force =    -0.00024880   -0.00049062   -0.00386377
     atom   19 type  1   force =    -0.00065266    0.00033714   -0.03881831
     atom   20 type  1   force =     0.00005842    0.00019759   -0.00596387
     atom   21 type  1   force =     0.00026544    0.00052106   -0.03799856
     atom   22 type  1   force =    -0.00028835   -0.00001441    0.03844538
     atom   23 type  1   force =    -0.00136185   -0.00016311    0.00342876
     atom   24 type  1   force =    -0.00149263   -0.00000000    0.00707967
     atom   25 type  1   force =    -0.00032633   -0.00000000    0.04047141
     atom   26 type  1   force =     0.00034003   -0.00000000   -0.00549539
     atom   27 type  1   force =     0.00010383   -0.00000000   -0.04223934
     atom   28 type  1   force =    -0.00090139    0.00000000   -0.00420146
     atom   29 type  1   force =     0.00071925    0.00000000   -0.03685527
     atom   30 type  1   force =     0.00005440   -0.00000000    0.03702451
     atom   31 type  1   force =     0.00133321    0.00000000    0.00365889
     atom   32 type  1   force =    -0.00016197    0.00000000    0.01202515
     atom   33 type  2   force =    -0.00002071    0.00000000   -0.34086820
     The ionic contribution  to forces
     atom    1 type  1   force =    -0.00000000   -0.00000000   -8.37606502
     atom    2 type  1   force =    -0.02536111   -0.00000000    3.95345377
     atom    3 type  1   force =     0.11081009   -0.00000000   -1.94142688
     atom    4 type  1   force =    -0.00000006   -0.00000000    9.82567551
     atom    5 type  1   force =    -0.11081017   -0.00000000   -2.04750200
     atom    6 type  1   force =     0.00000077   -0.00000000    9.83912590
     atom    7 type  1   force =     0.02536116    0.00000000    3.92595344
     atom    8 type  1   force =     0.06032958    0.00481562   -2.09630161
     atom    9 type  1   force =    -0.00667348    0.00006960    9.83234840
     atom   10 type  1   force =     0.01487576    0.00129928    3.96558533
     atom   11 type  1   force =    -0.54905601    0.11523895   -7.97428501
     atom   12 type  1   force =    -0.01443416   -0.00053435    3.91484010
     atom   13 type  1   force =     0.54905516   -0.11523890   -7.97428441
     atom   14 type  1   force =     0.00667272   -0.00006960    9.83234754
     atom   15 type  1   force =    -0.06886813   -0.01960496   -1.87323836
     atom   16 type  1   force =     0.06032958   -0.00481562   -2.09630161
     atom   17 type  1   force =    -0.00667348   -0.00006960    9.83234840
     atom   18 type  1   force =     0.01487576   -0.00129928    3.96558533
     atom   19 type  1   force =    -0.54905601   -0.11523895   -7.97428501
     atom   20 type  1   force =    -0.01443416    0.00053435    3.91484010
     atom   21 type  1   force =     0.54905516    0.11523890   -7.97428441
     atom   22 type  1   force =     0.00667272    0.00006960    9.83234754
     atom   23 type  1   force =    -0.06886813    0.01960496   -1.87323836
     atom   24 type  1   force =    -0.10383394   -0.00000000   -2.06024273
     atom   25 type  1   force =     0.00000077   -0.00000000    9.83893237
     atom   26 type  1   force =     0.02495071    0.00000000    3.92466820
     atom   27 type  1   force =     0.00000071   -0.00000000   -7.59590775
     atom   28 type  1   force =    -0.02583392   -0.00000000    3.95575694
     atom   29 type  1   force =    -0.00000000   -0.00000000   -8.35266187
     atom   30 type  1   force =    -0.00000006    0.00000000    9.82576353
     atom   31 type  1   force =     0.12091112    0.00000000   -1.90929750
     atom   32 type  1   force =     0.00000071    0.00000000   -6.74874263
     atom   33 type  2   force =     0.00000032   -0.00000000  -31.31150724
     The local contribution  to forces
     atom    1 type  1   force =    -0.00031250    0.00000000    8.40780011
     atom    2 type  1   force =     0.02768464    0.00000000   -3.95392876
     atom    3 type  1   force =    -0.11246150    0.00000000    1.93999953
     atom    4 type  1   force =     0.00007001   -0.00000000   -9.85771514
     atom    5 type  1   force =     0.11238497   -0.00000000    2.04527326
     atom    6 type  1   force =     0.00001315   -0.00000000   -9.87247717
     atom    7 type  1   force =    -0.02740442   -0.00000000   -3.92530696
     atom    8 type  1   force =    -0.06192571   -0.00488613    2.09415522
     atom    9 type  1   force =     0.00727108   -0.00047394   -9.86470127
     atom   10 type  1   force =    -0.01494485   -0.00176921   -3.96517380
     atom   11 type  1   force =     0.55014250   -0.11487429    8.00415694
     atom   12 type  1   force =     0.01477366    0.00096279   -3.91359144
     atom   13 type  1   force =    -0.54954012    0.11595845    8.00335766
     atom   14 type  1   force =    -0.00741475   -0.00005089   -9.86374853
     atom   15 type  1   force =     0.07046943    0.01985125    1.87302763
     atom   16 type  1   force =    -0.06192571    0.00488613    2.09415522
     atom   17 type  1   force =     0.00727108    0.00047394   -9.86470127
     atom   18 type  1   force =    -0.01494485    0.00176921   -3.96517380
     atom   19 type  1   force =     0.55014250    0.11487429    8.00415694
     atom   20 type  1   force =     0.01477366   -0.00096279   -3.91359144
     atom   21 type  1   force =    -0.54954012   -0.11595845    8.00335766
     atom   22 type  1   force =    -0.00741475    0.00005089   -9.86374853
     atom   23 type  1   force =     0.07046943   -0.01985125    1.87302763
     atom   24 type  1   force =     0.10529330    0.00000000    2.05829932
     atom   25 type  1   force =     0.00072695    0.00000000   -9.87145731
     atom   26 type  1   force =    -0.02604872    0.00000000   -3.92373421
     atom   27 type  1   force =    -0.00067834    0.00000000    7.62569363
     atom   28 type  1   force =     0.02721621   -0.00000000   -3.95523738
     atom   29 type  1   force =    -0.00043793   -0.00000000    8.38354173
     atom   30 type  1   force =     0.00000996    0.00000000   -9.85680122
     atom   31 type  1   force =    -0.12281050   -0.00000000    1.90895605
     atom   32 type  1   force =     0.00012714   -0.00000000    6.75131419
     atom   33 type  2   force =     0.00002644   -0.00000000   31.65132458
     The core correction contribution to forces
     atom    1 type  1   force =    -0.00002274    0.00000000    0.00421506
     atom    2 type  1   force =     0.00010737    0.00000000    0.00015830
     atom    3 type  1   force =    -0.00006864    0.00000000   -0.00035216
     atom    4 type  1   force =     0.00001118   -0.00000000   -0.00421223
     atom    5 type  1   force =     0.00006134   -0.00000000   -0.00042233
     atom    6 type  1   force =    -0.00000279   -0.00000000   -0.00448503
     atom    7 type  1   force =    -0.00009058   -0.00000000    0.00025917
     atom    8 type  1   force =    -0.00010988   -0.00001320   -0.00041423
     atom    9 type  1   force =    -0.00001146   -0.00000471   -0.00433362
     atom   10 type  1   force =     0.00001760   -0.00003277    0.00020111
     atom   11 type  1   force =     0.00003720    0.00002200    0.00431117
     atom   12 type  1   force =    -0.00000329    0.00001505    0.00032457
     atom   13 type  1   force =    -0.00000988    0.00003657    0.00425706
     atom   14 type  1   force =     0.00002095   -0.00000171   -0.00428477
     atom   15 type  1   force =     0.00009241   -0.00000621   -0.00017866
     atom   16 type  1   force =    -0.00010988    0.00001320   -0.00041423
     atom   17 type  1   force =    -0.00001146    0.00000471   -0.00433362
     atom   18 type  1   force =     0.00001760    0.00003277    0.00020111
     atom   19 type  1   force =     0.00003720   -0.00002200    0.00431117
     atom   20 type  1   force =    -0.00000329   -0.00001505    0.00032457
     atom   21 type  1   force =    -0.00000988   -0.00003657    0.00425706
     atom   22 type  1   force =     0.00002095    0.00000171   -0.00428477
     atom   23 type  1   force =     0.00009241    0.00000621   -0.00017866
     atom   24 type  1   force =     0.00009633    0.00000000   -0.00039823
     atom   25 type  1   force =     0.00002332   -0.00000000   -0.00442661
     atom   26 type  1   force =    -0.00002491    0.00000000    0.00029479
     atom   27 type  1   force =    -0.00001101    0.00000000    0.00454999
     atom   28 type  1   force =     0.00006048   -0.00000000    0.00022117
     atom   29 type  1   force =    -0.00004526   -0.00000000    0.00417492
     atom   30 type  1   force =    -0.00000367    0.00000000   -0.00418474
     atom   31 type  1   force =    -0.00009216   -0.00000000   -0.00019334
     atom   32 type  1   force =     0.00001008   -0.00000000    0.00050628
     atom   33 type  2   force =     0.00000000    0.00000000    0.00000000
     The Hubbard contrib.    to forces
     atom    1 type  1   force =     0.00000000    0.00000000    0.00000000
     atom    2 type  1   force =     0.00000000    0.00000000    0.00000000
     atom    3 type  1   force =     0.00000000    0.00000000    0.00000000
     atom    4 type  1   force =     0.00000000    0.00000000    0.00000000
     atom    5 type  1   force =     0.00000000    0.00000000    0.00000000
     atom    6 type  1   force =     0.00000000    0.00000000    0.00000000
     atom    7 type  1   force =     0.00000000    0.00000000    0.00000000
     atom    8 type  1   force =     0.00000000    0.00000000    0.00000000
     atom    9 type  1   force =     0.00000000    0.00000000    0.00000000
     atom   10 type  1   force =     0.00000000    0.00000000    0.00000000
     atom   11 type  1   force =     0.00000000    0.00000000    0.00000000
     atom   12 type  1   force =     0.00000000    0.00000000    0.00000000
     atom   13 type  1   force =     0.00000000    0.00000000    0.00000000
     atom   14 type  1   force =     0.00000000    0.00000000    0.00000000
     atom   15 type  1   force =     0.00000000    0.00000000    0.00000000
     atom   16 type  1   force =     0.00000000    0.00000000    0.00000000
     atom   17 type  1   force =     0.00000000    0.00000000    0.00000000
     atom   18 type  1   force =     0.00000000    0.00000000    0.00000000
     atom   19 type  1   force =     0.00000000    0.00000000    0.00000000
     atom   20 type  1   force =     0.00000000    0.00000000    0.00000000
     atom   21 type  1   force =     0.00000000    0.00000000    0.00000000
     atom   22 type  1   force =     0.00000000    0.00000000    0.00000000
     atom   23 type  1   force =     0.00000000    0.00000000    0.00000000
     atom   24 type  1   force =     0.00000000    0.00000000    0.00000000
     atom   25 type  1   force =     0.00000000    0.00000000    0.00000000
     atom   26 type  1   force =     0.00000000    0.00000000    0.00000000
     atom   27 type  1   force =     0.00000000    0.00000000    0.00000000
     atom   28 type  1   force =     0.00000000    0.00000000    0.00000000
     atom   29 type  1   force =     0.00000000    0.00000000    0.00000000
     atom   30 type  1   force =     0.00000000    0.00000000    0.00000000
     atom   31 type  1   force =     0.00000000    0.00000000    0.00000000
     atom   32 type  1   force =     0.00000000    0.00000000    0.00000000
     atom   33 type  2   force =     0.00000000    0.00000000    0.00000000
     The SCF correction term to forces
     atom    1 type  1   force =     0.00000059   -0.00000000   -0.00000140
     atom    2 type  1   force =    -0.00000152   -0.00000000   -0.00000038
     atom    3 type  1   force =     0.00000087   -0.00000000   -0.00000054
     atom    4 type  1   force =     0.00000002   -0.00000000   -0.00000115
     atom    5 type  1   force =    -0.00000118    0.00000000   -0.00000008
     atom    6 type  1   force =     0.00000006    0.00000000    0.00000095
     atom    7 type  1   force =     0.00000189    0.00000000   -0.00000012
     atom    8 type  1   force =     0.00000062    0.00000024    0.00000108
     atom    9 type  1   force =    -0.00000147   -0.00000003    0.00000041
     atom   10 type  1   force =     0.00000141    0.00000012   -0.00000027
     atom   11 type  1   force =     0.00000029    0.00000042   -0.00000187
     atom   12 type  1   force =    -0.00000175   -0.00000006   -0.00000008
     atom   13 type  1   force =    -0.00000025   -0.00000042   -0.00000181
     atom   14 type  1   force =     0.00000137    0.00000000   -0.00000044
     atom   15 type  1   force =    -0.00000047   -0.00000051   -0.00000162
     atom   16 type  1   force =     0.00000062   -0.00000024    0.00000108
     atom   17 type  1   force =    -0.00000147    0.00000003    0.00000041
     atom   18 type  1   force =     0.00000141   -0.00000012   -0.00000027
     atom   19 type  1   force =     0.00000029   -0.00000042   -0.00000187
     atom   20 type  1   force =    -0.00000175    0.00000006   -0.00000008
     atom   21 type  1   force =    -0.00000025    0.00000042   -0.00000181
     atom   22 type  1   force =     0.00000137   -0.00000000   -0.00000044
     atom   23 type  1   force =    -0.00000047    0.00000051   -0.00000162
     atom   24 type  1   force =    -0.00000103   -0.00000000   -0.00000027
     atom   25 type  1   force =     0.00000008   -0.00000000    0.00000095
     atom   26 type  1   force =     0.00000187   -0.00000000   -0.00000023
     atom   27 type  1   force =    -0.00000061   -0.00000000   -0.00000203
     atom   28 type  1   force =    -0.00000156    0.00000000   -0.00000015
     atom   29 type  1   force =     0.00000057    0.00000000   -0.00000148
     atom   30 type  1   force =     0.00000003    0.00000000   -0.00000114
     atom   31 type  1   force =     0.00000104    0.00000000   -0.00000029
     atom   32 type  1   force =    -0.00000063    0.00000000   -0.00000221
     atom   33 type  2   force =    -0.00000031    0.00000000    0.00000435

     Total force =     0.026647     Total SCF correction =     0.000010

     Writing all to output data dir ./temp2/AlwithNa_M0D002.save/

     init_run     :     20.28s CPU     14.26s WALL (       1 calls)
     electrons    :    650.88s CPU    409.69s WALL (       1 calls)
     forces       :     11.22s CPU      6.46s WALL (       1 calls)

     Called by init_run:
     wfcinit      :      9.83s CPU      6.69s WALL (       1 calls)
     potinit      :      4.31s CPU      2.28s WALL (       1 calls)
     hinit0       :      5.68s CPU      4.82s WALL (       1 calls)

     Called by electrons:
     c_bands      :    553.75s CPU    356.23s WALL (      32 calls)
     sum_band     :     89.34s CPU     46.68s WALL (      32 calls)
     v_of_rho     :      5.50s CPU      4.58s WALL (      33 calls)
     mix_rho      :      1.85s CPU      1.77s WALL (      32 calls)

     Called by c_bands:
     init_us_2    :     23.71s CPU     11.94s WALL (     396 calls)
     init_us_2:cp :     23.71s CPU     11.94s WALL (     396 calls)
     cegterg      :    465.79s CPU    294.60s WALL (     192 calls)

     Called by *egterg:
     cdiaghg      :      3.39s CPU      4.11s WALL (     940 calls)
     h_psi        :    422.01s CPU    254.49s WALL (     946 calls)
     g_psi        :      1.93s CPU      0.97s WALL (     748 calls)

     Called by h_psi:
     h_psi:calbec :     39.65s CPU     34.78s WALL (     946 calls)
     vloc_psi     :    337.53s CPU    176.53s WALL (     946 calls)
     add_vuspsi   :     41.20s CPU     41.32s WALL (     946 calls)

     General routines
     calbec       :     41.07s CPU     36.08s WALL (     970 calls)
     fft          :      2.64s CPU      3.12s WALL (     340 calls)
     ffts         :      0.14s CPU      0.16s WALL (      32 calls)
     fftw         :    302.15s CPU    159.47s WALL (   83862 calls)

     Parallel routines

     PWSCF        :  11m23.41s CPU   7m13.18s WALL


   This run was terminated on:  11:30:37  21Mar2025            

=------------------------------------------------------------------------------=
   JOB DONE.
=------------------------------------------------------------------------------=
