
     Program PWSCF v.7.2 starts on 20Mar2025 at 21:10:17 

     This program is part of the open-source Quantum ESPRESSO suite
     for quantum simulation of materials; please cite
         "P. Giannozzi et al., J. Phys.:Condens. Matter 21 395502 (2009);
         "P. Giannozzi et al., J. Phys.:Condens. Matter 29 465901 (2017);
         "P. Giannozzi et al., J. Chem. Phys. 152 154105 (2020);
          URL http://www.quantum-espresso.org", 
     in publications or presentations arising from this work. More details at
     http://www.quantum-espresso.org/quote

     Parallel version (MPI & OpenMP), running on     384 processor cores
     Number of MPI processes:               192
     Threads/MPI process:                     2

     MPI processes distributed on     8 nodes
     733337 MiB available memory on the printing compute node when the environment starts

     Reading input from Al111slabWithNa_0D004Ha.sc.in

     Current dimensions of program PWSCF are:
     Max number of different atomic species (ntypx) = 10
     Max number of k-points (npk) =  40000
     Max angular momentum in pseudopotentials (lmaxx) =  4

     K-points division:     npool     =      12
     R & G space division:  proc/nbgrp/npool/nimage =      16
     Subspace diagonalization in iterative solution of the eigenvalue problem:
     a serial algorithm will be used


     Parallelization info
     --------------------
     sticks:   dense  smooth     PW     G-vecs:    dense   smooth      PW
     Min         401     401    106                96479    96479   13202
     Max         402     402    107                96492    96492   13217
     Sum        6419    6419   1707              1543747  1543747  211325

     Using Slab Decomposition



     bravais-lattice index     =            0
     lattice parameter (alat)  =      18.6834  a.u.
     unit-cell volume          =   11425.3995 (a.u.)^3
     number of atoms/cell      =           33
     number of atomic types    =            2
     number of electrons       =       105.00
     number of Kohn-Sham states=           64
     kinetic-energy cutoff     =     100.0000  Ry
     charge density cutoff     =     400.0000  Ry
     scf convergence threshold =      1.0E-09
     mixing beta               =       0.7000
     number of iterations used =            8  plain     mixing
     Exchange-correlation= PBE
                           (   1   4   3   4   0   0   0)

     celldm(1)=  18.683402  celldm(2)=   0.000000  celldm(3)=   0.000000
     celldm(4)=   0.000000  celldm(5)=   0.000000  celldm(6)=   0.000000

     crystal axes: (cart. coord. in units of alat)
               a(1) = (   1.000000   0.000000   0.000000 )  
               a(2) = (   0.000000   0.577350   0.000000 )  
               a(3) = (   0.000000   0.000000   3.034340 )  

     reciprocal axes: (cart. coord. in units 2 pi/alat)
               b(1) = (  1.000000  0.000000  0.000000 )  
               b(2) = (  0.000000  1.732051  0.000000 )  
               b(3) = (  0.000000  0.000000  0.329561 )  


     PseudoPot. # 1 for Al read from file:
     ./Al.upf
     MD5 check sum: a92309766db89a6b54a5f8790cc4d69e
     Pseudo is Norm-conserving + core correction, Zval =  3.0
     Generated using ONCVPSP code by D. R. Hamann
     Using radial grid of 1876 points,  6 beta functions with: 
                l(1) =   0
                l(2) =   0
                l(3) =   1
                l(4) =   1
                l(5) =   2
                l(6) =   2

     PseudoPot. # 2 for Na read from file:
     ./Na.upf
     MD5 check sum: ed5af011864af3d1529ce3b51bbccf87
     Pseudo is Norm-conserving, Zval =  9.0
     Generated using ONCVPSP code by D. R. Hamann
     Using radial grid of 1992 points,  4 beta functions with: 
                l(1) =   0
                l(2) =   0
                l(3) =   1
                l(4) =   1

     atomic species   valence    mass     pseudopotential
        Al             3.00    26.00000     Al( 1.00)
        Na             9.00    23.00000     Na( 1.00)

     No symmetry found



   Cartesian axes

     site n.     atom                  positions (alat units)
         1           Al  tau(   1) = (   0.0000000   0.0000000   1.1636163  )
         2           Al  tau(   2) = (   0.3333333   0.0000000   1.6350208  )
         3           Al  tau(   3) = (   0.6666666   0.0000000   1.3993186  )
         4           Al  tau(   4) = (   0.0000000   0.0000000   1.8707232  )
         5           Al  tau(   5) = (   0.1666667   0.2886751   1.3993186  )
         6           Al  tau(   6) = (   0.5000000   0.2886751   1.8707232  )
         7           Al  tau(   7) = (   0.8333333   0.2886751   1.6350208  )
         8           Al  tau(   8) = (   0.9166667   0.4330127   1.3993186  )
         9           Al  tau(   9) = (   0.2500001   0.4330127   1.8707232  )
        10           Al  tau(  10) = (   0.5833333   0.4330127   1.6350208  )
        11           Al  tau(  11) = (   0.2500001   0.4330127   1.1636163  )
        12           Al  tau(  12) = (   0.0833334   0.1443376   1.6350208  )
        13           Al  tau(  13) = (   0.7500000   0.1443376   1.1636163  )
        14           Al  tau(  14) = (   0.7500000   0.1443376   1.8707232  )
        15           Al  tau(  15) = (   0.4166666   0.1443376   1.3993186  )
        16           Al  tau(  16) = (   0.9166667   0.1443376   1.3993186  )
        17           Al  tau(  17) = (   0.2500001   0.1443376   1.8707232  )
        18           Al  tau(  18) = (   0.5833333   0.1443376   1.6350208  )
        19           Al  tau(  19) = (   0.2500001   0.1443376   1.1636163  )
        20           Al  tau(  20) = (   0.0833334   0.4330127   1.6350208  )
        21           Al  tau(  21) = (   0.7500000   0.4330127   1.1636163  )
        22           Al  tau(  22) = (   0.7500000   0.4330127   1.8707232  )
        23           Al  tau(  23) = (   0.4166666   0.4330127   1.3993186  )
        24           Al  tau(  24) = (   0.1666667   0.0000000   1.3993186  )
        25           Al  tau(  25) = (   0.5000000   0.0000000   1.8707232  )
        26           Al  tau(  26) = (   0.8333333   0.0000000   1.6350208  )
        27           Al  tau(  27) = (   0.5000000   0.0000000   1.1636163  )
        28           Al  tau(  28) = (   0.3333333   0.2886751   1.6350208  )
        29           Al  tau(  29) = (   0.0000000   0.2886751   1.1636163  )
        30           Al  tau(  30) = (   0.0000000   0.2886751   1.8707232  )
        31           Al  tau(  31) = (   0.6666666   0.2886751   1.3993186  )
        32           Al  tau(  32) = (   0.5000000   0.2886751   1.1636163  )
        33           Na  tau(  33) = (   0.5000000   0.2886751   0.8799585  )

     number of k points=    72  Fermi-Dirac smearing, width (Ry)=  0.0032
                       cart. coord. in units 2pi/alat
        k(    1) = (   0.0416667   0.0721688   0.0000000), wk =   0.0277778
        k(    2) = (   0.0416667   0.2165063   0.0000000), wk =   0.0277778
        k(    3) = (   0.0416667   0.3608439   0.0000000), wk =   0.0277778
        k(    4) = (   0.0416667   0.5051815   0.0000000), wk =   0.0277778
        k(    5) = (   0.0416667   0.6495190   0.0000000), wk =   0.0277778
        k(    6) = (   0.0416667   0.7938566   0.0000000), wk =   0.0277778
        k(    7) = (   0.0416667  -0.7938566   0.0000000), wk =   0.0277778
        k(    8) = (   0.0416667  -0.6495190   0.0000000), wk =   0.0277778
        k(    9) = (   0.0416667  -0.5051815   0.0000000), wk =   0.0277778
        k(   10) = (   0.0416667  -0.3608439   0.0000000), wk =   0.0277778
        k(   11) = (   0.0416667  -0.2165063   0.0000000), wk =   0.0277778
        k(   12) = (   0.0416667  -0.0721688   0.0000000), wk =   0.0277778
        k(   13) = (   0.1250000   0.0721688   0.0000000), wk =   0.0277778
        k(   14) = (   0.1250000   0.2165063   0.0000000), wk =   0.0277778
        k(   15) = (   0.1250000   0.3608439   0.0000000), wk =   0.0277778
        k(   16) = (   0.1250000   0.5051815   0.0000000), wk =   0.0277778
        k(   17) = (   0.1250000   0.6495190   0.0000000), wk =   0.0277778
        k(   18) = (   0.1250000   0.7938566   0.0000000), wk =   0.0277778
        k(   19) = (   0.1250000  -0.7938566   0.0000000), wk =   0.0277778
        k(   20) = (   0.1250000  -0.6495190   0.0000000), wk =   0.0277778
        k(   21) = (   0.1250000  -0.5051815   0.0000000), wk =   0.0277778
        k(   22) = (   0.1250000  -0.3608439   0.0000000), wk =   0.0277778
        k(   23) = (   0.1250000  -0.2165063   0.0000000), wk =   0.0277778
        k(   24) = (   0.1250000  -0.0721688   0.0000000), wk =   0.0277778
        k(   25) = (   0.2083333   0.0721688   0.0000000), wk =   0.0277778
        k(   26) = (   0.2083333   0.2165063   0.0000000), wk =   0.0277778
        k(   27) = (   0.2083333   0.3608439   0.0000000), wk =   0.0277778
        k(   28) = (   0.2083333   0.5051815   0.0000000), wk =   0.0277778
        k(   29) = (   0.2083333   0.6495190   0.0000000), wk =   0.0277778
        k(   30) = (   0.2083333   0.7938566   0.0000000), wk =   0.0277778
        k(   31) = (   0.2083333  -0.7938566   0.0000000), wk =   0.0277778
        k(   32) = (   0.2083333  -0.6495190   0.0000000), wk =   0.0277778
        k(   33) = (   0.2083333  -0.5051815   0.0000000), wk =   0.0277778
        k(   34) = (   0.2083333  -0.3608439   0.0000000), wk =   0.0277778
        k(   35) = (   0.2083333  -0.2165063   0.0000000), wk =   0.0277778
        k(   36) = (   0.2083333  -0.0721688   0.0000000), wk =   0.0277778
        k(   37) = (   0.2916667   0.0721688   0.0000000), wk =   0.0277778
        k(   38) = (   0.2916667   0.2165063   0.0000000), wk =   0.0277778
        k(   39) = (   0.2916667   0.3608439   0.0000000), wk =   0.0277778
        k(   40) = (   0.2916667   0.5051815   0.0000000), wk =   0.0277778
        k(   41) = (   0.2916667   0.6495190   0.0000000), wk =   0.0277778
        k(   42) = (   0.2916667   0.7938566   0.0000000), wk =   0.0277778
        k(   43) = (   0.2916667  -0.7938566   0.0000000), wk =   0.0277778
        k(   44) = (   0.2916667  -0.6495190   0.0000000), wk =   0.0277778
        k(   45) = (   0.2916667  -0.5051815   0.0000000), wk =   0.0277778
        k(   46) = (   0.2916667  -0.3608439   0.0000000), wk =   0.0277778
        k(   47) = (   0.2916667  -0.2165063   0.0000000), wk =   0.0277778
        k(   48) = (   0.2916667  -0.0721688   0.0000000), wk =   0.0277778
        k(   49) = (   0.3750000   0.0721688   0.0000000), wk =   0.0277778
        k(   50) = (   0.3750000   0.2165063   0.0000000), wk =   0.0277778
        k(   51) = (   0.3750000   0.3608439   0.0000000), wk =   0.0277778
        k(   52) = (   0.3750000   0.5051815   0.0000000), wk =   0.0277778
        k(   53) = (   0.3750000   0.6495190   0.0000000), wk =   0.0277778
        k(   54) = (   0.3750000   0.7938566   0.0000000), wk =   0.0277778
        k(   55) = (   0.3750000  -0.7938566   0.0000000), wk =   0.0277778
        k(   56) = (   0.3750000  -0.6495190   0.0000000), wk =   0.0277778
        k(   57) = (   0.3750000  -0.5051815   0.0000000), wk =   0.0277778
        k(   58) = (   0.3750000  -0.3608439   0.0000000), wk =   0.0277778
        k(   59) = (   0.3750000  -0.2165063   0.0000000), wk =   0.0277778
        k(   60) = (   0.3750000  -0.0721688   0.0000000), wk =   0.0277778
        k(   61) = (   0.4583333   0.0721688   0.0000000), wk =   0.0277778
        k(   62) = (   0.4583333   0.2165063   0.0000000), wk =   0.0277778
        k(   63) = (   0.4583333   0.3608439   0.0000000), wk =   0.0277778
        k(   64) = (   0.4583333   0.5051815   0.0000000), wk =   0.0277778
        k(   65) = (   0.4583333   0.6495190   0.0000000), wk =   0.0277778
        k(   66) = (   0.4583333   0.7938566   0.0000000), wk =   0.0277778
        k(   67) = (   0.4583333  -0.7938566   0.0000000), wk =   0.0277778
        k(   68) = (   0.4583333  -0.6495190   0.0000000), wk =   0.0277778
        k(   69) = (   0.4583333  -0.5051815   0.0000000), wk =   0.0277778
        k(   70) = (   0.4583333  -0.3608439   0.0000000), wk =   0.0277778
        k(   71) = (   0.4583333  -0.2165063   0.0000000), wk =   0.0277778
        k(   72) = (   0.4583333  -0.0721688   0.0000000), wk =   0.0277778

     Dense  grid:  1543747 G-vectors     FFT dimensions: ( 120,  72, 375)

     Estimated max dynamical RAM per process >     299.74 MB

     Estimated total dynamical RAM >      52.15 GB

     Initial potential from superposition of free atoms

     starting charge     104.9155, renormalised to     105.0000

     negative rho (up, down):  4.627E-05 0.000E+00

     Adding external electric field

     Computed dipole along edir(3) : 
        Dipole                0.0117 Ry au,          0.0297 Debye
        Dipole field          0.0000 Ry au, 

        E field amplitude [Ha a.u.]:  4.0000E-03
        Potential amp.        0.3617 Ry
        Total length         45.3534 bohr

     Starting wfcs are  133 atomic wfcs

     total cpu time spent up to now is       15.2 secs

     Self-consistent Calculation

     iteration #  1     ecut=   100.00 Ry     beta= 0.70
     Davidson diagonalization with overlap
     ethr =  1.00E-02,  avg # of iterations =  3.0

     negative rho (up, down):  5.759E-06 0.000E+00

     Adding external electric field

     Computed dipole along edir(3) : 
        Dipole               26.2909 Ry au,         66.8249 Debye
        Dipole field          0.0289 Ry au, 

        E field amplitude [Ha a.u.]:  4.0000E-03
        Potential amp.       -2.2601 Ry
        Total length         45.3534 bohr


     total cpu time spent up to now is       27.6 secs

     total energy              =    -232.40186749 Ry
     estimated scf accuracy    <       8.37570851 Ry

     iteration #  2     ecut=   100.00 Ry     beta= 0.70
     Davidson diagonalization with overlap
     ethr =  7.98E-03,  avg # of iterations = 16.0

     negative rho (up, down):  2.185E-06 0.000E+00

     Adding external electric field

     Computed dipole along edir(3) : 
        Dipole               -7.3955 Ry au,        -18.7975 Debye
        Dipole field         -0.0081 Ry au, 

        E field amplitude [Ha a.u.]:  4.0000E-03
        Potential amp.        1.1006 Ry
        Total length         45.3534 bohr


     total cpu time spent up to now is       65.9 secs

     total energy              =    -162.45701569 Ry
     estimated scf accuracy    <    3884.67724651 Ry

     iteration #  3     ecut=   100.00 Ry     beta= 0.70
     Davidson diagonalization with overlap
     ethr =  7.98E-03,  avg # of iterations = 14.7

     Adding external electric field

     Computed dipole along edir(3) : 
        Dipole               -4.4718 Ry au,        -11.3661 Debye
        Dipole field         -0.0049 Ry au, 

        E field amplitude [Ha a.u.]:  4.0000E-03
        Potential amp.        0.8090 Ry
        Total length         45.3534 bohr


     total cpu time spent up to now is      104.6 secs

     total energy              =    -234.73880735 Ry
     estimated scf accuracy    <     119.10094488 Ry

     iteration #  4     ecut=   100.00 Ry     beta= 0.70
     Davidson diagonalization with overlap
     ethr =  7.98E-03,  avg # of iterations =  7.2

     Adding external electric field

     Computed dipole along edir(3) : 
        Dipole               -0.8510 Ry au,         -2.1630 Debye
        Dipole field         -0.0009 Ry au, 

        E field amplitude [Ha a.u.]:  4.0000E-03
        Potential amp.        0.4477 Ry
        Total length         45.3534 bohr


     total cpu time spent up to now is      119.9 secs

     total energy              =    -236.58633828 Ry
     estimated scf accuracy    <      68.05567061 Ry

     iteration #  5     ecut=   100.00 Ry     beta= 0.70
     Davidson diagonalization with overlap
     ethr =  7.98E-03,  avg # of iterations =  2.9

     Adding external electric field

     Computed dipole along edir(3) : 
        Dipole               -0.6326 Ry au,         -1.6078 Debye
        Dipole field         -0.0007 Ry au, 

        E field amplitude [Ha a.u.]:  4.0000E-03
        Potential amp.        0.4259 Ry
        Total length         45.3534 bohr


     total cpu time spent up to now is      129.8 secs

     total energy              =    -239.26279203 Ry
     estimated scf accuracy    <       0.85762797 Ry

     iteration #  6     ecut=   100.00 Ry     beta= 0.70
     Davidson diagonalization with overlap
     ethr =  8.17E-04,  avg # of iterations =  6.9

     Adding external electric field

     Computed dipole along edir(3) : 
        Dipole               -0.4139 Ry au,         -1.0521 Debye
        Dipole field         -0.0005 Ry au, 

        E field amplitude [Ha a.u.]:  4.0000E-03
        Potential amp.        0.4041 Ry
        Total length         45.3534 bohr


     total cpu time spent up to now is      144.0 secs

     total energy              =    -239.35190513 Ry
     estimated scf accuracy    <       1.25613111 Ry

     iteration #  7     ecut=   100.00 Ry     beta= 0.70
     Davidson diagonalization with overlap
     ethr =  8.17E-04,  avg # of iterations =  1.9

     Adding external electric field

     Computed dipole along edir(3) : 
        Dipole               -0.3877 Ry au,         -0.9854 Debye
        Dipole field         -0.0004 Ry au, 

        E field amplitude [Ha a.u.]:  4.0000E-03
        Potential amp.        0.4015 Ry
        Total length         45.3534 bohr


     total cpu time spent up to now is      153.1 secs

     total energy              =    -239.36277916 Ry
     estimated scf accuracy    <       0.53458277 Ry

     iteration #  8     ecut=   100.00 Ry     beta= 0.70
     Davidson diagonalization with overlap
     ethr =  5.09E-04,  avg # of iterations =  1.7

     Adding external electric field

     Computed dipole along edir(3) : 
        Dipole               -0.4019 Ry au,         -1.0215 Debye
        Dipole field         -0.0004 Ry au, 

        E field amplitude [Ha a.u.]:  4.0000E-03
        Potential amp.        0.4029 Ry
        Total length         45.3534 bohr


     total cpu time spent up to now is      162.2 secs

     total energy              =    -239.36297447 Ry
     estimated scf accuracy    <       0.42927821 Ry

     iteration #  9     ecut=   100.00 Ry     beta= 0.70
     Davidson diagonalization with overlap
     ethr =  4.09E-04,  avg # of iterations =  1.1

     Adding external electric field

     Computed dipole along edir(3) : 
        Dipole               -0.3715 Ry au,         -0.9441 Debye
        Dipole field         -0.0004 Ry au, 

        E field amplitude [Ha a.u.]:  4.0000E-03
        Potential amp.        0.3999 Ry
        Total length         45.3534 bohr


     total cpu time spent up to now is      170.8 secs

     total energy              =    -239.35801063 Ry
     estimated scf accuracy    <       0.39676484 Ry

     iteration # 10     ecut=   100.00 Ry     beta= 0.70
     Davidson diagonalization with overlap
     ethr =  3.78E-04,  avg # of iterations =  1.0

     Adding external electric field

     Computed dipole along edir(3) : 
        Dipole               -0.3336 Ry au,         -0.8479 Debye
        Dipole field         -0.0004 Ry au, 

        E field amplitude [Ha a.u.]:  4.0000E-03
        Potential amp.        0.3961 Ry
        Total length         45.3534 bohr


     total cpu time spent up to now is      179.2 secs

     total energy              =    -239.34757213 Ry
     estimated scf accuracy    <       0.32608362 Ry

     iteration # 11     ecut=   100.00 Ry     beta= 0.70
     Davidson diagonalization with overlap
     ethr =  3.11E-04,  avg # of iterations =  1.0

     negative rho (up, down):  1.044E-07 0.000E+00

     Adding external electric field

     Computed dipole along edir(3) : 
        Dipole                0.0343 Ry au,          0.0872 Debye
        Dipole field          0.0000 Ry au, 

        E field amplitude [Ha a.u.]:  4.0000E-03
        Potential amp.        0.3594 Ry
        Total length         45.3534 bohr


     total cpu time spent up to now is      187.7 secs

     total energy              =    -239.29969719 Ry
     estimated scf accuracy    <       0.24592466 Ry

     iteration # 12     ecut=   100.00 Ry     beta= 0.70
     Davidson diagonalization with overlap
     ethr =  2.34E-04,  avg # of iterations =  6.3

     negative rho (up, down):  1.084E-02 0.000E+00

     Adding external electric field

     Computed dipole along edir(3) : 
        Dipole                0.1655 Ry au,          0.4207 Debye
        Dipole field          0.0002 Ry au, 

        E field amplitude [Ha a.u.]:  4.0000E-03
        Potential amp.        0.3463 Ry
        Total length         45.3534 bohr


     total cpu time spent up to now is      199.8 secs

     total energy              =    -239.31205235 Ry
     estimated scf accuracy    <       0.04882299 Ry

     iteration # 13     ecut=   100.00 Ry     beta= 0.70
     Davidson diagonalization with overlap
     ethr =  4.65E-05,  avg # of iterations = 10.7

     Adding external electric field

     Computed dipole along edir(3) : 
        Dipole                0.5327 Ry au,          1.3540 Debye
        Dipole field          0.0006 Ry au, 

        E field amplitude [Ha a.u.]:  4.0000E-03
        Potential amp.        0.3097 Ry
        Total length         45.3534 bohr


     total cpu time spent up to now is      215.2 secs

     total energy              =    -239.30473595 Ry
     estimated scf accuracy    <       0.24773002 Ry

     iteration # 14     ecut=   100.00 Ry     beta= 0.70
     Davidson diagonalization with overlap
     ethr =  4.65E-05,  avg # of iterations =  2.9

     Adding external electric field

     Computed dipole along edir(3) : 
        Dipole                0.3973 Ry au,          1.0098 Debye
        Dipole field          0.0004 Ry au, 

        E field amplitude [Ha a.u.]:  4.0000E-03
        Potential amp.        0.3232 Ry
        Total length         45.3534 bohr


     total cpu time spent up to now is      225.6 secs

     total energy              =    -239.31364115 Ry
     estimated scf accuracy    <       0.04229094 Ry

     iteration # 15     ecut=   100.00 Ry     beta= 0.70
     Davidson diagonalization with overlap
     ethr =  4.03E-05,  avg # of iterations =  1.4

     Adding external electric field

     Computed dipole along edir(3) : 
        Dipole                0.4053 Ry au,          1.0301 Debye
        Dipole field          0.0004 Ry au, 

        E field amplitude [Ha a.u.]:  4.0000E-03
        Potential amp.        0.3224 Ry
        Total length         45.3534 bohr


     total cpu time spent up to now is      234.5 secs

     total energy              =    -239.31571136 Ry
     estimated scf accuracy    <       0.01775773 Ry

     iteration # 16     ecut=   100.00 Ry     beta= 0.70
     Davidson diagonalization with overlap
     ethr =  1.69E-05,  avg # of iterations =  1.4

     Adding external electric field

     Computed dipole along edir(3) : 
        Dipole                0.4808 Ry au,          1.2222 Debye
        Dipole field          0.0005 Ry au, 

        E field amplitude [Ha a.u.]:  4.0000E-03
        Potential amp.        0.3149 Ry
        Total length         45.3534 bohr


     total cpu time spent up to now is      243.3 secs

     total energy              =    -239.31648370 Ry
     estimated scf accuracy    <       0.00238044 Ry

     iteration # 17     ecut=   100.00 Ry     beta= 0.70
     Davidson diagonalization with overlap
     ethr =  2.27E-06,  avg # of iterations = 10.6

     Adding external electric field

     Computed dipole along edir(3) : 
        Dipole                0.5160 Ry au,          1.3116 Debye
        Dipole field          0.0006 Ry au, 

        E field amplitude [Ha a.u.]:  4.0000E-03
        Potential amp.        0.3113 Ry
        Total length         45.3534 bohr


     total cpu time spent up to now is      259.2 secs

     total energy              =    -239.31669512 Ry
     estimated scf accuracy    <       0.00049297 Ry

     iteration # 18     ecut=   100.00 Ry     beta= 0.70
     Davidson diagonalization with overlap
     ethr =  4.69E-07,  avg # of iterations =  4.1

     Adding external electric field

     Computed dipole along edir(3) : 
        Dipole                0.5123 Ry au,          1.3022 Debye
        Dipole field          0.0006 Ry au, 

        E field amplitude [Ha a.u.]:  4.0000E-03
        Potential amp.        0.3117 Ry
        Total length         45.3534 bohr


     total cpu time spent up to now is      270.9 secs

     total energy              =    -239.31674359 Ry
     estimated scf accuracy    <       0.00014179 Ry

     iteration # 19     ecut=   100.00 Ry     beta= 0.70
     Davidson diagonalization with overlap
     ethr =  1.35E-07,  avg # of iterations =  3.1

     Adding external electric field

     Computed dipole along edir(3) : 
        Dipole                0.5207 Ry au,          1.3234 Debye
        Dipole field          0.0006 Ry au, 

        E field amplitude [Ha a.u.]:  4.0000E-03
        Potential amp.        0.3109 Ry
        Total length         45.3534 bohr


     total cpu time spent up to now is      280.9 secs

     total energy              =    -239.31675162 Ry
     estimated scf accuracy    <       0.00005465 Ry

     iteration # 20     ecut=   100.00 Ry     beta= 0.70
     Davidson diagonalization with overlap
     ethr =  5.20E-08,  avg # of iterations =  3.5

     Adding external electric field

     Computed dipole along edir(3) : 
        Dipole                0.5251 Ry au,          1.3347 Debye
        Dipole field          0.0006 Ry au, 

        E field amplitude [Ha a.u.]:  4.0000E-03
        Potential amp.        0.3104 Ry
        Total length         45.3534 bohr


     total cpu time spent up to now is      291.9 secs

     total energy              =    -239.31675976 Ry
     estimated scf accuracy    <       0.00000889 Ry

     iteration # 21     ecut=   100.00 Ry     beta= 0.70
     Davidson diagonalization with overlap
     ethr =  8.46E-09,  avg # of iterations =  4.8

     Adding external electric field

     Computed dipole along edir(3) : 
        Dipole                0.5239 Ry au,          1.3315 Debye
        Dipole field          0.0006 Ry au, 

        E field amplitude [Ha a.u.]:  4.0000E-03
        Potential amp.        0.3106 Ry
        Total length         45.3534 bohr


     total cpu time spent up to now is      304.4 secs

     total energy              =    -239.31676099 Ry
     estimated scf accuracy    <       0.00001348 Ry

     iteration # 22     ecut=   100.00 Ry     beta= 0.70
     Davidson diagonalization with overlap
     ethr =  8.46E-09,  avg # of iterations =  2.0

     Adding external electric field

     Computed dipole along edir(3) : 
        Dipole                0.5247 Ry au,          1.3336 Debye
        Dipole field          0.0006 Ry au, 

        E field amplitude [Ha a.u.]:  4.0000E-03
        Potential amp.        0.3105 Ry
        Total length         45.3534 bohr


     total cpu time spent up to now is      314.1 secs

     total energy              =    -239.31676201 Ry
     estimated scf accuracy    <       0.00000272 Ry

     iteration # 23     ecut=   100.00 Ry     beta= 0.70
     Davidson diagonalization with overlap
     ethr =  2.59E-09,  avg # of iterations =  2.3

     Adding external electric field

     Computed dipole along edir(3) : 
        Dipole                0.5246 Ry au,          1.3335 Debye
        Dipole field          0.0006 Ry au, 

        E field amplitude [Ha a.u.]:  4.0000E-03
        Potential amp.        0.3105 Ry
        Total length         45.3534 bohr


     total cpu time spent up to now is      324.0 secs

     total energy              =    -239.31676238 Ry
     estimated scf accuracy    <       0.00000021 Ry

     iteration # 24     ecut=   100.00 Ry     beta= 0.70
     Davidson diagonalization with overlap
     ethr =  1.95E-10,  avg # of iterations =  6.5

     Adding external electric field

     Computed dipole along edir(3) : 
        Dipole                0.5254 Ry au,          1.3354 Debye
        Dipole field          0.0006 Ry au, 

        E field amplitude [Ha a.u.]:  4.0000E-03
        Potential amp.        0.3104 Ry
        Total length         45.3534 bohr


     total cpu time spent up to now is      338.6 secs

     total energy              =    -239.31676237 Ry
     estimated scf accuracy    <       0.00000330 Ry

     iteration # 25     ecut=   100.00 Ry     beta= 0.70
     Davidson diagonalization with overlap
     ethr =  1.95E-10,  avg # of iterations =  4.5

     negative rho (up, down):  2.721E-07 0.000E+00

     Adding external electric field

     Computed dipole along edir(3) : 
        Dipole                0.5260 Ry au,          1.3370 Debye
        Dipole field          0.0006 Ry au, 

        E field amplitude [Ha a.u.]:  4.0000E-03
        Potential amp.        0.3103 Ry
        Total length         45.3534 bohr


     total cpu time spent up to now is      350.2 secs

     total energy              =    -239.31676253 Ry
     estimated scf accuracy    <       0.00000069 Ry

     iteration # 26     ecut=   100.00 Ry     beta= 0.70
     Davidson diagonalization with overlap
     ethr =  1.95E-10,  avg # of iterations =  2.0

     negative rho (up, down):  2.693E-07 0.000E+00

     Adding external electric field

     Computed dipole along edir(3) : 
        Dipole                0.5258 Ry au,          1.3364 Debye
        Dipole field          0.0006 Ry au, 

        E field amplitude [Ha a.u.]:  4.0000E-03
        Potential amp.        0.3104 Ry
        Total length         45.3534 bohr


     total cpu time spent up to now is      359.9 secs

     total energy              =    -239.31676253 Ry
     estimated scf accuracy    <       0.00000021 Ry

     iteration # 27     ecut=   100.00 Ry     beta= 0.70
     Davidson diagonalization with overlap
     ethr =  1.95E-10,  avg # of iterations =  1.0

     Adding external electric field

     Computed dipole along edir(3) : 
        Dipole                0.5258 Ry au,          1.3364 Debye
        Dipole field          0.0006 Ry au, 

        E field amplitude [Ha a.u.]:  4.0000E-03
        Potential amp.        0.3104 Ry
        Total length         45.3534 bohr


     total cpu time spent up to now is      368.3 secs

     total energy              =    -239.31676254 Ry
     estimated scf accuracy    <       0.00000004 Ry

     iteration # 28     ecut=   100.00 Ry     beta= 0.70
     Davidson diagonalization with overlap
     ethr =  4.14E-11,  avg # of iterations =  2.6

     Adding external electric field

     Computed dipole along edir(3) : 
        Dipole                0.5259 Ry au,          1.3367 Debye
        Dipole field          0.0006 Ry au, 

        E field amplitude [Ha a.u.]:  4.0000E-03
        Potential amp.        0.3104 Ry
        Total length         45.3534 bohr


     total cpu time spent up to now is      378.4 secs

     total energy              =    -239.31676254 Ry
     estimated scf accuracy    <          7.2E-09 Ry

     iteration # 29     ecut=   100.00 Ry     beta= 0.70
     Davidson diagonalization with overlap
     ethr =  6.84E-12,  avg # of iterations =  5.1

     Adding external electric field

     Computed dipole along edir(3) : 
        Dipole                0.5258 Ry au,          1.3365 Debye
        Dipole field          0.0006 Ry au, 

        E field amplitude [Ha a.u.]:  4.0000E-03
        Potential amp.        0.3104 Ry
        Total length         45.3534 bohr


     total cpu time spent up to now is      392.1 secs

     total energy              =    -239.31676254 Ry
     estimated scf accuracy    <       0.00000005 Ry

     iteration # 30     ecut=   100.00 Ry     beta= 0.70
     Davidson diagonalization with overlap
     ethr =  6.84E-12,  avg # of iterations =  2.9

     negative rho (up, down):  6.186E-08 0.000E+00

     Adding external electric field

     Computed dipole along edir(3) : 
        Dipole                0.5258 Ry au,          1.3365 Debye
        Dipole field          0.0006 Ry au, 

        E field amplitude [Ha a.u.]:  4.0000E-03
        Potential amp.        0.3104 Ry
        Total length         45.3534 bohr


     total cpu time spent up to now is      402.6 secs

     total energy              =    -239.31676254 Ry
     estimated scf accuracy    <          4.9E-09 Ry

     iteration # 31     ecut=   100.00 Ry     beta= 0.70
     Davidson diagonalization with overlap
     ethr =  4.70E-12,  avg # of iterations =  2.1

     negative rho (up, down):  2.285E-08 0.000E+00

     Adding external electric field

     Computed dipole along edir(3) : 
        Dipole                0.5259 Ry au,          1.3366 Debye
        Dipole field          0.0006 Ry au, 

        E field amplitude [Ha a.u.]:  4.0000E-03
        Potential amp.        0.3104 Ry
        Total length         45.3534 bohr


     total cpu time spent up to now is      412.2 secs

     total energy              =    -239.31676254 Ry
     estimated scf accuracy    <          2.5E-09 Ry

     iteration # 32     ecut=   100.00 Ry     beta= 0.70
     Davidson diagonalization with overlap
     ethr =  2.35E-12,  avg # of iterations =  1.4

     Adding external electric field

     Computed dipole along edir(3) : 
        Dipole                0.5261 Ry au,          1.3371 Debye
        Dipole field          0.0006 Ry au, 

        E field amplitude [Ha a.u.]:  4.0000E-03
        Potential amp.        0.3103 Ry
        Total length         45.3534 bohr


     total cpu time spent up to now is      421.0 secs

     End of self-consistent calculation

          k = 0.0417 0.0722 0.0000 (192948 PWs)   bands (ev):

   -53.6765 -25.6117 -25.5928 -25.5900 -10.5933  -9.5653  -9.2148  -8.9655
    -8.1944  -7.9478  -7.9140  -6.5558  -6.4973  -6.3100  -5.7658  -5.7099
    -5.4940  -5.1610  -4.9208  -4.9206  -4.7689  -4.4379  -4.4378  -4.3593
    -4.2139  -4.1607  -4.1153  -3.9402  -3.9395  -3.8873  -3.4816  -3.4809
    -3.2871  -3.2688  -3.1790  -2.5520  -2.3995  -2.3940  -1.9915  -1.7981
    -1.7509  -1.6512  -1.6443  -1.4803  -1.3080  -0.8957  -0.5912  -0.4616
    -0.3221  -0.2664  -0.0613  -0.0471   0.1137   0.1384   0.4233   0.4361
     0.4715   0.5591   0.6610   0.6656   0.8447   0.8992   1.0267   1.2421

          k = 0.0417 0.2165 0.0000 (192942 PWs)   bands (ev):

   -53.6765 -25.6117 -25.5928 -25.5900 -10.5304  -9.5027  -9.1524  -8.9033
    -8.1324  -7.8859  -7.8518  -7.1717  -6.4943  -6.2488  -6.1635  -5.8271
    -5.6479  -5.5842  -4.9779  -4.8604  -4.8319  -4.5932  -4.5459  -4.3777
    -4.2979  -4.0546  -3.9893  -3.8797  -3.6664  -3.4437  -3.4217  -3.2657
    -3.2221  -3.0944  -2.5842  -2.4422  -2.4142  -2.3951  -2.3383  -1.9297
    -1.6957  -1.6677  -1.5869  -1.2250  -1.0500  -1.0091  -0.8091  -0.6363
    -0.6019  -0.5173  -0.3422  -0.1552  -0.0003   0.2162   0.4828   0.5197
     0.5783   0.8978   0.9921   1.0515   1.0844   1.1689   1.2891   1.4167

          k = 0.0417 0.3608 0.0000 (192862 PWs)   bands (ev):

   -53.6765 -25.6117 -25.5928 -25.5901 -10.4046  -9.3775  -9.0278  -8.7789
    -8.0085  -7.7878  -7.7622  -7.7276  -6.7756  -6.4365  -6.3713  -6.1923
    -6.1260  -5.5245  -5.4344  -5.1935  -5.1493  -4.7397  -4.2575  -4.1770
    -4.1359  -3.9337  -3.8385  -3.7601  -3.6074  -3.3029  -3.1628  -3.1072
    -2.9729  -2.8467  -2.6328  -2.2454  -2.2219  -1.9462  -1.8705  -1.8132
    -1.7961  -1.7166  -1.5792  -1.4684  -1.2276  -1.2026  -1.1664  -0.7666
    -0.6594  -0.4010  -0.1341   0.0850   0.1056   0.1507   0.5823   0.6254
     0.7358   0.9460   1.0155   1.0455   1.1916   1.2307   1.2389   1.6483

          k = 0.0417 0.5052 0.0000 (192883 PWs)   bands (ev):

   -53.6765 -25.6117 -25.5928 -25.5901 -10.2161  -9.1900  -8.8411  -8.5925
    -8.3444  -7.8229  -7.5769  -7.5416  -7.3288  -6.9875  -6.7423  -6.1876
    -5.9812  -5.9426  -5.7387  -5.6968  -5.3380  -4.5591  -4.3698  -4.1315
    -4.0774  -3.9944  -3.7524  -3.5814  -3.5104  -3.2445  -3.1251  -2.9270
    -2.7691  -2.3261  -2.3123  -2.2616  -2.2054  -2.0478  -1.8505  -1.7370
    -1.6394  -1.6040  -1.4235  -1.4020  -1.2921  -1.1635  -0.7973  -0.6721
    -0.6026  -0.2472  -0.2280   0.2056   0.2532   0.4191   0.7033   0.7391
     0.7434   0.8023   0.9624   1.1694   1.3452   1.4046   1.7798   2.0496

          k = 0.0417 0.6495 0.0000 (192942 PWs)   bands (ev):

   -53.6765 -25.6117 -25.5928 -25.5901  -9.9651  -8.9404  -8.8411  -8.5925
    -8.3444  -7.8227  -7.5757  -7.4793  -7.3302  -7.2939  -7.2331  -6.4695
    -6.2261  -6.1858  -5.9424  -5.6982  -5.0920  -4.8491  -4.6081  -4.3186
    -3.9934  -3.8379  -3.7524  -3.5116  -3.3436  -3.2445  -2.8889  -2.7691
    -2.7130  -2.6779  -2.4744  -2.3259  -2.2615  -1.8507  -1.8180  -1.6339
    -1.4233  -1.3987  -1.1698  -1.0613  -0.9843  -0.8115  -0.6717  -0.2582
    -0.2394  -0.1233   0.0115   0.1982   0.3435   0.3581   0.6382   0.7401
     0.9296   1.1387   1.3183   1.3742   1.4963   1.6407   1.7764   1.8713

          k = 0.0417 0.7939 0.0000 (192966 PWs)   bands (ev):

   -53.6765 -25.6117 -25.5928 -25.5901  -9.6520  -9.2772  -8.6290  -8.2824
    -8.2562  -8.0348  -7.9112  -7.6643  -7.2675  -7.0225  -6.9852  -6.8984
    -6.6541  -6.6153  -5.6375  -5.3940  -5.2726  -5.0302  -4.7846  -4.4171
    -4.0187  -3.6603  -3.5392  -3.4543  -3.2156  -3.1820  -3.0989  -3.0474
    -2.8638  -2.6961  -2.5951  -2.3962  -2.2463  -2.0390  -1.5377  -1.3263
    -1.2263  -1.1169  -0.8904  -0.7921  -0.7851  -0.5901  -0.4836  -0.3055
    -0.2977   0.1067   0.2586   0.3113   0.3726   0.6666   1.0064   1.0673
     1.1153   1.2435   1.2682   1.2938   1.3591   1.5624   1.6212   1.8405

          k = 0.0417-0.7939 0.0000 (192966 PWs)   bands (ev):

   -53.6765 -25.6117 -25.5928 -25.5901  -9.6520  -9.2772  -8.6290  -8.2824
    -8.2562  -8.0348  -7.9112  -7.6643  -7.2675  -7.0225  -6.9852  -6.8984
    -6.6541  -6.6153  -5.6375  -5.3940  -5.2726  -5.0302  -4.7846  -4.4171
    -4.0187  -3.6603  -3.5392  -3.4543  -3.2156  -3.1820  -3.0989  -3.0474
    -2.8638  -2.6961  -2.5951  -2.3962  -2.2463  -2.0390  -1.5377  -1.3263
    -1.2263  -1.1169  -0.8904  -0.7921  -0.7851  -0.5901  -0.4836  -0.3055
    -0.2977   0.1067   0.2586   0.3113   0.3726   0.6666   1.0064   1.0673
     1.1153   1.2435   1.2682   1.2938   1.3591   1.5624   1.6212   1.8405

          k = 0.0417-0.6495 0.0000 (192942 PWs)   bands (ev):

   -53.6765 -25.6117 -25.5928 -25.5901  -9.9651  -8.9404  -8.8411  -8.5925
    -8.3444  -7.8227  -7.5757  -7.4793  -7.3302  -7.2939  -7.2331  -6.4695
    -6.2261  -6.1858  -5.9424  -5.6982  -5.0920  -4.8491  -4.6081  -4.3186
    -3.9934  -3.8379  -3.7524  -3.5116  -3.3436  -3.2445  -2.8889  -2.7691
    -2.7130  -2.6779  -2.4744  -2.3259  -2.2615  -1.8507  -1.8180  -1.6339
    -1.4233  -1.3987  -1.1698  -1.0613  -0.9843  -0.8115  -0.6717  -0.2582
    -0.2394  -0.1233   0.0115   0.1982   0.3435   0.3581   0.6382   0.7401
     0.9296   1.1387   1.3183   1.3742   1.4963   1.6407   1.7764   1.8713

          k = 0.0417-0.5052 0.0000 (192883 PWs)   bands (ev):

   -53.6765 -25.6117 -25.5928 -25.5901 -10.2161  -9.1900  -8.8411  -8.5925
    -8.3444  -7.8229  -7.5769  -7.5416  -7.3288  -6.9875  -6.7423  -6.1876
    -5.9812  -5.9426  -5.7387  -5.6968  -5.3380  -4.5591  -4.3698  -4.1315
    -4.0774  -3.9944  -3.7524  -3.5814  -3.5104  -3.2445  -3.1251  -2.9270
    -2.7691  -2.3261  -2.3123  -2.2616  -2.2054  -2.0478  -1.8505  -1.7370
    -1.6394  -1.6040  -1.4235  -1.4020  -1.2921  -1.1635  -0.7973  -0.6721
    -0.6026  -0.2472  -0.2280   0.2056   0.2532   0.4191   0.7033   0.7391
     0.7434   0.8023   0.9624   1.1694   1.3452   1.4046   1.7798   2.0496

          k = 0.0417-0.3608 0.0000 (192862 PWs)   bands (ev):

   -53.6765 -25.6117 -25.5928 -25.5901 -10.4046  -9.3775  -9.0278  -8.7789
    -8.0085  -7.7878  -7.7622  -7.7276  -6.7756  -6.4365  -6.3713  -6.1923
    -6.1260  -5.5245  -5.4344  -5.1935  -5.1493  -4.7397  -4.2575  -4.1770
    -4.1359  -3.9337  -3.8385  -3.7601  -3.6074  -3.3029  -3.1628  -3.1072
    -2.9729  -2.8467  -2.6328  -2.2454  -2.2219  -1.9462  -1.8705  -1.8132
    -1.7961  -1.7166  -1.5792  -1.4684  -1.2276  -1.2026  -1.1664  -0.7666
    -0.6594  -0.4010  -0.1341   0.0850   0.1056   0.1507   0.5823   0.6254
     0.7358   0.9460   1.0155   1.0455   1.1916   1.2307   1.2389   1.6483

          k = 0.0417-0.2165 0.0000 (192942 PWs)   bands (ev):

   -53.6765 -25.6117 -25.5928 -25.5900 -10.5304  -9.5027  -9.1524  -8.9033
    -8.1324  -7.8859  -7.8518  -7.1717  -6.4943  -6.2488  -6.1635  -5.8271
    -5.6479  -5.5842  -4.9779  -4.8604  -4.8319  -4.5932  -4.5459  -4.3777
    -4.2979  -4.0546  -3.9893  -3.8797  -3.6664  -3.4437  -3.4217  -3.2657
    -3.2221  -3.0944  -2.5842  -2.4422  -2.4142  -2.3951  -2.3383  -1.9297
    -1.6957  -1.6677  -1.5869  -1.2250  -1.0500  -1.0091  -0.8091  -0.6363
    -0.6019  -0.5173  -0.3422  -0.1552  -0.0003   0.2162   0.4828   0.5197
     0.5783   0.8978   0.9921   1.0515   1.0844   1.1689   1.2891   1.4167

          k = 0.0417-0.0722 0.0000 (192948 PWs)   bands (ev):

   -53.6765 -25.6117 -25.5928 -25.5900 -10.5933  -9.5653  -9.2148  -8.9655
    -8.1944  -7.9478  -7.9140  -6.5558  -6.4973  -6.3100  -5.7658  -5.7099
    -5.4940  -5.1610  -4.9208  -4.9206  -4.7689  -4.4379  -4.4378  -4.3593
    -4.2139  -4.1607  -4.1153  -3.9402  -3.9395  -3.8873  -3.4816  -3.4809
    -3.2871  -3.2688  -3.1790  -2.5520  -2.3995  -2.3940  -1.9915  -1.7981
    -1.7509  -1.6512  -1.6443  -1.4803  -1.3080  -0.8957  -0.5912  -0.4616
    -0.3221  -0.2664  -0.0613  -0.0471   0.1137   0.1384   0.4233   0.4361
     0.4715   0.5591   0.6610   0.6656   0.8447   0.8992   1.0267   1.2421

          k = 0.1250 0.0722 0.0000 (192973 PWs)   bands (ev):

   -53.6765 -25.6117 -25.5928 -25.5900 -10.5724  -9.5445  -9.4436  -8.6961
    -8.4219  -7.8950  -7.6783  -6.7811  -6.4770  -6.0450  -5.7455  -5.6890
    -5.4739  -5.3828  -5.3820  -4.7490  -4.6868  -4.6303  -4.5821  -4.3957
    -4.3921  -3.9411  -3.9400  -3.8732  -3.8508  -3.7062  -3.6687  -3.2655
    -3.1615  -3.0999  -3.0984  -2.6665  -2.6603  -2.3023  -2.2008  -1.7918
    -1.7090  -1.5552  -1.5032  -1.2695  -1.2604  -1.0550  -0.7072  -0.5833
    -0.4575  -0.4453  -0.3496   0.0649   0.1126   0.2295   0.3041   0.3965
     0.5893   0.7590   0.8303   0.8878   0.9162   0.9237   1.0474   1.3745

          k = 0.1250 0.2165 0.0000 (192926 PWs)   bands (ev):

   -53.6765 -25.6117 -25.5928 -25.5900 -10.5094  -9.4819  -9.3811  -8.6339
    -8.3598  -7.8328  -7.6165  -7.1512  -6.7196  -6.1435  -6.0501  -5.9837
    -5.6270  -5.3219  -5.3218  -5.0523  -4.9579  -4.5327  -4.5152  -4.3340
    -4.3337  -3.9704  -3.8806  -3.8803  -3.7939  -3.4844  -3.2052  -3.1667
    -3.0411  -3.0404  -2.6046  -2.6035  -2.4341  -2.3801  -2.2054  -2.1405
    -2.0998  -1.4473  -1.2105  -1.2030  -1.1625  -1.1217  -0.7812  -0.5303
    -0.4379  -0.3994  -0.3946  -0.2246  -0.1432   0.2409   0.2561   0.4555
     0.8153   0.9080   0.9530   0.9600   1.0785   1.1025   1.1082   1.4289

          k = 0.1250 0.3608 0.0000 (192891 PWs)   bands (ev):

   -53.6765 -25.6117 -25.5928 -25.5901 -10.3836  -9.3567  -9.2563  -8.5098
    -8.2357  -7.7672  -7.7086  -7.4931  -6.7552  -6.6607  -6.5963  -5.9284
    -5.8615  -5.6571  -5.5031  -5.2007  -5.1304  -4.9310  -4.3991  -4.2139
    -4.1163  -4.0534  -3.7608  -3.6739  -3.3663  -3.1451  -3.0882  -3.0473
    -2.9538  -2.9235  -2.6896  -2.4850  -2.4310  -2.0884  -2.0251  -1.8910
    -1.8779  -1.4634  -1.3323  -1.2823  -1.1222  -1.0885  -1.0081  -0.6446
    -0.3991  -0.3770  -0.3229  -0.2864  -0.0907   0.3171   0.5149   0.5900
     0.8538   0.9288   1.0245   1.0506   1.1883   1.2258   1.5629   1.7412

          k = 0.1250 0.5052 0.0000 (192912 PWs)   bands (ev):

   -53.6765 -25.6117 -25.5928 -25.5901 -10.1951  -9.1692  -9.0693  -8.3242
    -8.3233  -8.0497  -7.5227  -7.3103  -7.3061  -7.2127  -6.4771  -6.4122
    -6.2046  -5.6844  -5.6721  -5.4744  -5.3172  -5.0192  -4.5891  -4.2162
    -4.0343  -3.8750  -3.5813  -3.5052  -3.4790  -3.2561  -3.1889  -2.9077
    -2.7483  -2.4787  -2.3098  -2.3060  -2.2550  -2.2435  -1.8473  -1.8101
    -1.7084  -1.3977  -1.1788  -1.1444  -1.1243  -0.9428  -0.9143  -0.6119
    -0.4096  -0.3852  -0.2211  -0.1331   0.0428   0.4814   0.6960   0.7433
     1.0267   1.0868   1.1348   1.2103   1.3330   1.3757   1.7370   1.9234

          k = 0.1250 0.6495 0.0000 (192967 PWs)   bands (ev):

   -53.6765 -25.6117 -25.5928 -25.5901  -9.9442  -8.9197  -8.8208  -8.8199
    -8.0761  -7.8044  -7.7999  -7.7053  -7.2749  -7.0620  -6.9670  -6.6940
    -6.1725  -6.1610  -5.9604  -5.4347  -5.0790  -5.0628  -4.7776  -4.3486
    -3.9861  -3.9600  -3.7955  -3.6981  -3.3425  -3.2545  -2.9094  -2.7356
    -2.6705  -2.5156  -2.3110  -2.2480  -2.2405  -2.0718  -1.6370  -1.5899
    -1.5770  -1.3332  -1.1631  -0.9236  -0.9114  -0.7322  -0.6874  -0.2828
    -0.1684  -0.0141   0.0057   0.0394   0.2718   0.5831   0.8063   0.8777
     0.9095   1.0962   1.3023   1.4056   1.4262   1.5051   1.5470   1.9410

          k = 0.1250 0.7939 0.0000 (192964 PWs)   bands (ev):

   -53.6765 -25.6117 -25.5928 -25.5901  -9.6311  -9.2564  -8.6083  -8.5097
    -8.2356  -8.1379  -7.7671  -7.4934  -7.3972  -7.1238  -6.9660  -6.7550
    -6.5963  -6.3875  -5.8610  -5.4953  -5.1314  -4.7750  -4.7578  -4.4765
    -4.3966  -4.1163  -3.6733  -3.4982  -3.3151  -3.1435  -3.0450  -2.9601
    -2.6898  -2.6145  -2.3764  -2.2274  -2.0199  -1.8892  -1.7825  -1.4636
    -1.3244  -1.2823  -0.9842  -0.6499  -0.4502  -0.4301  -0.3808  -0.3196
    -0.0924   0.0099   0.2429   0.3004   0.5024   0.6853   0.8555   0.8750
     1.0272   1.0993   1.1452   1.3879   1.4839   1.5633   1.7912   1.8804

          k = 0.1250-0.7939 0.0000 (192964 PWs)   bands (ev):

   -53.6765 -25.6117 -25.5928 -25.5901  -9.6311  -9.2564  -8.6083  -8.5097
    -8.2356  -8.1379  -7.7671  -7.4934  -7.3972  -7.1238  -6.9660  -6.7550
    -6.5963  -6.3875  -5.8610  -5.4953  -5.1314  -4.7750  -4.7578  -4.4765
    -4.3966  -4.1163  -3.6733  -3.4982  -3.3151  -3.1435  -3.0450  -2.9601
    -2.6898  -2.6145  -2.3764  -2.2274  -2.0199  -1.8892  -1.7825  -1.4636
    -1.3244  -1.2823  -0.9842  -0.6499  -0.4502  -0.4301  -0.3808  -0.3196
    -0.0924   0.0099   0.2429   0.3004   0.5024   0.6853   0.8555   0.8750
     1.0272   1.0993   1.1452   1.3879   1.4839   1.5633   1.7912   1.8804

          k = 0.1250-0.6495 0.0000 (192967 PWs)   bands (ev):

   -53.6765 -25.6117 -25.5928 -25.5901  -9.9442  -8.9197  -8.8208  -8.8199
    -8.0761  -7.8044  -7.7999  -7.7053  -7.2749  -7.0620  -6.9670  -6.6940
    -6.1725  -6.1610  -5.9604  -5.4347  -5.0790  -5.0628  -4.7776  -4.3486
    -3.9861  -3.9600  -3.7955  -3.6981  -3.3425  -3.2545  -2.9094  -2.7356
    -2.6705  -2.5156  -2.3110  -2.2480  -2.2405  -2.0718  -1.6370  -1.5899
    -1.5770  -1.3332  -1.1631  -0.9236  -0.9114  -0.7322  -0.6874  -0.2828
    -0.1684  -0.0141   0.0057   0.0394   0.2718   0.5831   0.8063   0.8777
     0.9095   1.0962   1.3023   1.4056   1.4262   1.5051   1.5470   1.9410

          k = 0.1250-0.5052 0.0000 (192912 PWs)   bands (ev):

   -53.6765 -25.6117 -25.5928 -25.5901 -10.1951  -9.1692  -9.0693  -8.3242
    -8.3233  -8.0497  -7.5227  -7.3103  -7.3061  -7.2127  -6.4771  -6.4122
    -6.2046  -5.6844  -5.6721  -5.4744  -5.3172  -5.0192  -4.5891  -4.2162
    -4.0343  -3.8750  -3.5813  -3.5052  -3.4790  -3.2561  -3.1889  -2.9077
    -2.7483  -2.4787  -2.3098  -2.3060  -2.2550  -2.2435  -1.8473  -1.8101
    -1.7084  -1.3977  -1.1788  -1.1444  -1.1243  -0.9428  -0.9143  -0.6119
    -0.4096  -0.3852  -0.2211  -0.1331   0.0428   0.4814   0.6960   0.7433
     1.0267   1.0868   1.1348   1.2103   1.3330   1.3757   1.7370   1.9234

          k = 0.1250-0.3608 0.0000 (192891 PWs)   bands (ev):

   -53.6765 -25.6117 -25.5928 -25.5901 -10.3836  -9.3567  -9.2563  -8.5098
    -8.2357  -7.7672  -7.7086  -7.4931  -6.7552  -6.6607  -6.5963  -5.9284
    -5.8615  -5.6571  -5.5031  -5.2007  -5.1304  -4.9310  -4.3991  -4.2139
    -4.1163  -4.0534  -3.7608  -3.6739  -3.3663  -3.1451  -3.0882  -3.0473
    -2.9538  -2.9235  -2.6896  -2.4850  -2.4310  -2.0884  -2.0251  -1.8910
    -1.8779  -1.4634  -1.3323  -1.2823  -1.1222  -1.0885  -1.0081  -0.6446
    -0.3991  -0.3770  -0.3229  -0.2864  -0.0907   0.3171   0.5149   0.5900
     0.8538   0.9288   1.0245   1.0506   1.1883   1.2258   1.5629   1.7412

          k = 0.1250-0.2165 0.0000 (192926 PWs)   bands (ev):

   -53.6765 -25.6117 -25.5928 -25.5900 -10.5094  -9.4819  -9.3811  -8.6339
    -8.3598  -7.8328  -7.6165  -7.1512  -6.7196  -6.1435  -6.0501  -5.9837
    -5.6270  -5.3219  -5.3218  -5.0523  -4.9579  -4.5327  -4.5152  -4.3340
    -4.3337  -3.9704  -3.8806  -3.8803  -3.7939  -3.4844  -3.2052  -3.1667
    -3.0411  -3.0404  -2.6046  -2.6035  -2.4341  -2.3801  -2.2054  -2.1405
    -2.0998  -1.4473  -1.2105  -1.2030  -1.1625  -1.1217  -0.7812  -0.5303
    -0.4379  -0.3994  -0.3946  -0.2246  -0.1432   0.2409   0.2561   0.4555
     0.8153   0.9080   0.9530   0.9600   1.0785   1.1025   1.1082   1.4289

          k = 0.1250-0.0722 0.0000 (192973 PWs)   bands (ev):

   -53.6765 -25.6117 -25.5928 -25.5900 -10.5724  -9.5445  -9.4436  -8.6961
    -8.4219  -7.8950  -7.6783  -6.7811  -6.4770  -6.0450  -5.7455  -5.6890
    -5.4739  -5.3828  -5.3820  -4.7490  -4.6868  -4.6303  -4.5821  -4.3957
    -4.3921  -3.9411  -3.9400  -3.8732  -3.8508  -3.7062  -3.6687  -3.2655
    -3.1615  -3.0999  -3.0984  -2.6665  -2.6603  -2.3023  -2.2008  -1.7918
    -1.7090  -1.5552  -1.5032  -1.2695  -1.2604  -1.0550  -0.7072  -0.5833
    -0.4575  -0.4453  -0.3496   0.0649   0.1126   0.2295   0.3041   0.3965
     0.5893   0.7590   0.8303   0.8878   0.9162   0.9237   1.0474   1.3745

          k = 0.2083 0.0722 0.0000 (192934 PWs)   bands (ev):

   -53.6765 -25.6117 -25.5928 -25.5900 -10.5304  -9.6520  -9.5026  -8.6290
    -8.4064  -7.8535  -7.3905  -6.9865  -6.4362  -5.8271  -5.7618  -5.7050
    -5.6462  -5.5842  -5.4334  -4.8605  -4.8335  -4.7837  -4.7085  -4.5920
    -4.3777  -3.8799  -3.8307  -3.6666  -3.5771  -3.4435  -3.4214  -3.2659
    -3.2220  -3.1256  -3.0942  -2.5838  -2.4166  -2.3942  -2.3364  -1.9257
    -1.7948  -1.5919  -1.2445  -1.1849  -1.0848  -1.0479  -1.0080  -0.6397
    -0.6046  -0.5701  -0.5137  -0.0971   0.0011   0.2807   0.4340   0.4869
     0.6480   0.6749   0.7429   0.7576   1.1610   1.2519   1.2889   1.4067

          k = 0.2083 0.2165 0.0000 (192892 PWs)   bands (ev):

   -53.6765 -25.6117 -25.5928 -25.5900 -10.4675  -9.5894  -9.4401  -8.5668
    -8.3444  -7.7913  -7.3288  -7.1103  -6.9248  -6.2533  -6.1027  -5.7663
    -5.7006  -5.5841  -5.2532  -5.0401  -4.9178  -4.7731  -4.7222  -4.4867
    -4.0950  -4.0396  -3.9312  -3.6672  -3.5168  -3.3842  -3.2063  -3.1637
    -3.1503  -2.9061  -2.5576  -2.4362  -2.3847  -2.3597  -2.3505  -2.3231
    -2.0038  -1.5338  -1.3645  -1.2314  -1.1778  -0.9503  -0.5755  -0.4878
    -0.4563  -0.4017  -0.1915  -0.1581  -0.0680   0.1034   0.1945   0.3407
     0.6994   0.7088   0.7628   0.8138   0.9017   1.0875   1.3434   1.4596

          k = 0.2083 0.3608 0.0000 (192925 PWs)   bands (ev):

   -53.6765 -25.6117 -25.5928 -25.5901 -10.3417  -9.4645  -9.3150  -8.4425
    -8.2205  -7.7261  -7.6671  -7.2057  -6.8650  -6.8016  -6.7141  -5.8595
    -5.6449  -5.6446  -5.5786  -5.4604  -5.0900  -4.6527  -4.6507  -4.5997
    -4.2505  -4.0770  -3.3979  -3.2666  -3.2651  -3.1471  -3.0927  -3.0842
    -3.0806  -3.0417  -2.9154  -2.3242  -2.2410  -2.2359  -2.2187  -2.2101
    -1.8524  -1.5184  -1.0714  -0.9161  -0.8419  -0.8329  -0.8170  -0.6192
    -0.4703  -0.4528  -0.4491  -0.3392   0.0535   0.2996   0.4572   0.4802
     0.6272   0.8225   0.9261   1.1145   1.4090   1.4385   1.4602   1.5575

          k = 0.2083 0.5052 0.0000 (192924 PWs)   bands (ev):

   -53.6765 -25.6117 -25.5928 -25.5901 -10.1533  -9.2772  -9.1275  -8.2825
    -8.2563  -8.0348  -7.4813  -7.4178  -7.2672  -7.0211  -6.6170  -6.4082
    -6.1921  -5.6375  -5.4626  -5.3958  -5.2750  -5.1916  -4.7893  -4.4718
    -4.4164  -3.6602  -3.6024  -3.4518  -3.2169  -3.1820  -3.0882  -2.9104
    -2.8649  -2.6976  -2.6490  -2.3966  -2.2464  -2.0618  -2.0386  -1.6376
    -1.3263  -1.2267  -1.1625  -1.1185  -0.9871  -0.8863  -0.6689  -0.4878
    -0.3147  -0.2967  -0.2834  -0.1650   0.0227   0.3084   0.6226   0.9298
     1.0013   1.0814   1.1504   1.2859   1.4693   1.4816   1.5698   1.6871

          k = 0.2083 0.6495 0.0000 (192946 PWs)   bands (ev):

   -53.6765 -25.6117 -25.5928 -25.5901  -9.9024  -9.0278  -8.8780  -8.7789
    -8.0084  -7.9112  -7.7877  -7.7608  -7.2336  -6.8985  -6.7755  -6.6809
    -6.3712  -6.1257  -5.6766  -5.2730  -5.2200  -5.1528  -5.0283  -4.2318
    -4.1744  -4.1359  -4.0708  -3.9303  -3.1631  -3.1006  -2.9802  -2.8519
    -2.6749  -2.6281  -2.2453  -2.0235  -1.8281  -1.8079  -1.7960  -1.7167
    -1.5712  -1.3135  -1.2046  -0.8209  -0.7656  -0.6644  -0.4579  -0.3161
    -0.1278  -0.1096   0.0579   0.1503   0.4883   0.8012   0.8514   0.8980
     1.0392   1.0717   1.2218   1.2272   1.2324   1.3228   1.6549   1.7248

          k = 0.2083 0.7939 0.0000 (192995 PWs)   bands (ev):

   -53.6765 -25.6117 -25.5928 -25.5901  -9.5895  -9.2148  -8.7168  -8.5668
    -8.3444  -8.1942  -7.6991  -7.4793  -7.3290  -7.1103  -6.9249  -6.5554
    -6.4690  -6.1027  -6.0646  -5.6981  -4.9178  -4.8506  -4.7225  -4.5561
    -4.4885  -4.3550  -3.9326  -3.8714  -3.5753  -3.5113  -2.6897  -2.5575
    -2.3859  -2.3597  -2.3241  -2.2065  -2.0475  -1.9787  -1.5364  -1.5130
    -1.2654  -1.1926  -1.1674  -0.4710  -0.4102  -0.3972  -0.3671  -0.0696
     0.0833   0.1724   0.1939   0.3266   0.6604   0.7054   0.7094   0.7672
     0.8823   1.0525   1.1015   1.4148   1.5387   1.6033   1.6323   1.6736

          k = 0.2083-0.7939 0.0000 (192995 PWs)   bands (ev):

   -53.6765 -25.6117 -25.5928 -25.5901  -9.5895  -9.2148  -8.7168  -8.5668
    -8.3444  -8.1942  -7.6991  -7.4793  -7.3290  -7.1103  -6.9249  -6.5554
    -6.4690  -6.1027  -6.0646  -5.6981  -4.9178  -4.8506  -4.7225  -4.5561
    -4.4885  -4.3550  -3.9326  -3.8714  -3.5753  -3.5113  -2.6897  -2.5575
    -2.3859  -2.3597  -2.3241  -2.2065  -2.0475  -1.9787  -1.5364  -1.5130
    -1.2654  -1.1926  -1.1674  -0.4710  -0.4102  -0.3972  -0.3671  -0.0696
     0.0833   0.1724   0.1939   0.3266   0.6604   0.7054   0.7094   0.7672
     0.8823   1.0525   1.1015   1.4148   1.5387   1.6033   1.6323   1.6736

          k = 0.2083-0.6495 0.0000 (192946 PWs)   bands (ev):

   -53.6765 -25.6117 -25.5928 -25.5901  -9.9024  -9.0278  -8.8780  -8.7789
    -8.0084  -7.9112  -7.7877  -7.7608  -7.2336  -6.8985  -6.7755  -6.6809
    -6.3712  -6.1257  -5.6766  -5.2730  -5.2200  -5.1528  -5.0283  -4.2318
    -4.1744  -4.1359  -4.0708  -3.9303  -3.1631  -3.1006  -2.9802  -2.8519
    -2.6749  -2.6281  -2.2453  -2.0235  -1.8281  -1.8079  -1.7960  -1.7167
    -1.5712  -1.3135  -1.2046  -0.8209  -0.7656  -0.6644  -0.4579  -0.3161
    -0.1278  -0.1096   0.0579   0.1503   0.4883   0.8012   0.8514   0.8980
     1.0392   1.0717   1.2218   1.2272   1.2324   1.3228   1.6549   1.7248

          k = 0.2083-0.5052 0.0000 (192924 PWs)   bands (ev):

   -53.6765 -25.6117 -25.5928 -25.5901 -10.1533  -9.2772  -9.1275  -8.2825
    -8.2563  -8.0348  -7.4813  -7.4178  -7.2672  -7.0211  -6.6170  -6.4082
    -6.1921  -5.6375  -5.4626  -5.3958  -5.2750  -5.1916  -4.7893  -4.4718
    -4.4164  -3.6602  -3.6024  -3.4518  -3.2169  -3.1820  -3.0882  -2.9104
    -2.8649  -2.6976  -2.6490  -2.3966  -2.2464  -2.0618  -2.0386  -1.6376
    -1.3263  -1.2267  -1.1625  -1.1185  -0.9871  -0.8863  -0.6689  -0.4878
    -0.3147  -0.2967  -0.2834  -0.1650   0.0227   0.3084   0.6226   0.9298
     1.0013   1.0814   1.1504   1.2859   1.4693   1.4816   1.5698   1.6871

          k = 0.2083-0.3608 0.0000 (192925 PWs)   bands (ev):

   -53.6765 -25.6117 -25.5928 -25.5901 -10.3417  -9.4645  -9.3150  -8.4425
    -8.2205  -7.7261  -7.6671  -7.2057  -6.8650  -6.8016  -6.7141  -5.8595
    -5.6449  -5.6446  -5.5786  -5.4604  -5.0900  -4.6527  -4.6507  -4.5997
    -4.2505  -4.0770  -3.3979  -3.2666  -3.2651  -3.1471  -3.0927  -3.0842
    -3.0806  -3.0417  -2.9154  -2.3242  -2.2410  -2.2359  -2.2187  -2.2101
    -1.8524  -1.5184  -1.0714  -0.9161  -0.8419  -0.8329  -0.8170  -0.6192
    -0.4703  -0.4528  -0.4491  -0.3392   0.0535   0.2996   0.4572   0.4802
     0.6272   0.8225   0.9261   1.1145   1.4090   1.4385   1.4602   1.5575

          k = 0.2083-0.2165 0.0000 (192892 PWs)   bands (ev):

   -53.6765 -25.6117 -25.5928 -25.5900 -10.4675  -9.5894  -9.4401  -8.5668
    -8.3444  -7.7913  -7.3288  -7.1103  -6.9248  -6.2533  -6.1027  -5.7663
    -5.7006  -5.5841  -5.2532  -5.0401  -4.9178  -4.7731  -4.7222  -4.4867
    -4.0950  -4.0396  -3.9312  -3.6672  -3.5168  -3.3842  -3.2063  -3.1637
    -3.1503  -2.9061  -2.5576  -2.4362  -2.3847  -2.3597  -2.3505  -2.3231
    -2.0038  -1.5338  -1.3645  -1.2314  -1.1778  -0.9503  -0.5755  -0.4878
    -0.4563  -0.4017  -0.1915  -0.1581  -0.0680   0.1034   0.1945   0.3407
     0.6994   0.7088   0.7628   0.8138   0.9017   1.0875   1.3434   1.4596

          k = 0.2083-0.0722 0.0000 (192934 PWs)   bands (ev):

   -53.6765 -25.6117 -25.5928 -25.5900 -10.5304  -9.6520  -9.5026  -8.6290
    -8.4064  -7.8535  -7.3905  -6.9865  -6.4362  -5.8271  -5.7618  -5.7050
    -5.6462  -5.5842  -5.4334  -4.8605  -4.8335  -4.7837  -4.7085  -4.5920
    -4.3777  -3.8799  -3.8307  -3.6666  -3.5771  -3.4435  -3.4214  -3.2659
    -3.2220  -3.1256  -3.0942  -2.5838  -2.4166  -2.3942  -2.3364  -1.9257
    -1.7948  -1.5919  -1.2445  -1.1849  -1.0848  -1.0479  -1.0080  -0.6397
    -0.6046  -0.5701  -0.5137  -0.0971   0.0011   0.2807   0.4340   0.4869
     0.6480   0.6749   0.7429   0.7576   1.1610   1.2519   1.2889   1.4067

          k = 0.2917 0.0722 0.0000 (192893 PWs)   bands (ev):

   -53.6765 -25.6117 -25.5928 -25.5900 -10.4675  -9.8397  -9.4401  -8.8158
    -8.0967  -7.7913  -7.1719  -7.0825  -6.3752  -6.2533  -5.7663  -5.6445
    -5.5890  -5.4528  -5.3729  -5.2533  -5.0402  -4.9687  -4.7712  -4.6490
    -4.0950  -4.0396  -3.7726  -3.6670  -3.3844  -3.2900  -3.2048  -3.1585
    -3.1504  -3.0733  -2.9061  -2.5717  -2.4327  -2.3543  -2.3137  -2.0038
    -1.8585  -1.4245  -1.3931  -1.3596  -1.2285  -0.9820  -0.9437  -0.6808
    -0.5719  -0.4854  -0.4452  -0.1907  -0.1558   0.1192   0.1564   0.3299
     0.7047   0.7355   0.7809   0.9041   0.9505   1.0639   1.1047   1.3426

          k = 0.2917 0.2165 0.0000 (192850 PWs)   bands (ev):

   -53.6765 -25.6117 -25.5928 -25.5900 -10.4046  -9.7771  -9.3775  -8.7535
    -8.0349  -7.7292  -7.1102  -7.0488  -7.0210  -6.4364  -6.1923  -6.0418
    -5.5273  -5.4343  -5.3918  -5.1928  -4.9073  -4.8576  -4.7397  -4.4272
    -4.2575  -3.8729  -3.8389  -3.7603  -3.6075  -3.3033  -3.2288  -3.0977
    -2.9520  -2.8467  -2.6330  -2.5134  -2.3957  -2.3013  -2.2193  -1.9456
    -1.8776  -1.8633  -1.4738  -1.2271  -1.1672  -0.9158  -0.8107  -0.4365
    -0.3619  -0.1342  -0.1253   0.0348   0.0894   0.1165   0.1793   0.2138
     0.3743   0.4482   0.5925   0.7329   0.7892   0.9628   1.1622   1.4047

          k = 0.2917 0.3608 0.0000 (192930 PWs)   bands (ev):

   -53.6765 -25.6117 -25.5928 -25.5901 -10.2789  -9.6520  -9.2525  -8.6290
    -7.9112  -7.6644  -7.6051  -7.0490  -6.9866  -6.8982  -6.6529  -6.0703
    -6.0421  -5.4037  -5.3415  -5.2703  -5.0718  -5.0296  -4.7844  -4.4292
    -4.3515  -4.0187  -3.5393  -3.4888  -3.4277  -3.1124  -3.0478  -2.9819
    -2.8714  -2.8482  -2.7280  -2.5954  -2.4027  -2.3605  -2.3435  -1.8288
    -1.6658  -1.5371  -1.0561  -0.8321  -0.7995  -0.7878  -0.6630  -0.5919
    -0.3812  -0.3065  -0.2965  -0.0213   0.1056   0.1639   0.2955   0.3342
     0.3730   0.9004   0.9061   1.0605   1.0767   1.2436   1.2776   1.3298

          k = 0.2917 0.5052 0.0000 (192991 PWs)   bands (ev):

   -53.6765 -25.6117 -25.5928 -25.5901 -10.0905  -9.4644  -9.0651  -8.4425
    -8.2205  -7.7260  -7.6026  -7.4193  -7.2056  -6.8017  -6.7141  -6.5917
    -5.8876  -5.8874  -5.5766  -5.2181  -5.0882  -4.9702  -4.8903  -4.8900
    -4.6004  -4.0770  -3.3980  -3.3112  -3.3082  -3.1470  -3.0811  -2.9314
    -2.8239  -2.7920  -2.5504  -2.5500  -2.2217  -2.2115  -1.6574  -1.6522
    -1.5185  -1.0701  -0.9254  -0.8891  -0.8762  -0.8175  -0.6256  -0.4569
    -0.3597  -0.1234   0.0539   0.1383   0.1442   0.2409   0.4687   0.5023
     0.8323   1.0614   1.1105   1.2068   1.2202   1.4473   1.6788   1.7576

          k = 0.2917 0.6495 0.0000 (192996 PWs)   bands (ev):

   -53.6765 -25.6117 -25.5928 -25.5901  -9.8398  -9.2148  -8.8158  -8.7168
    -8.1943  -8.0967  -7.6991  -7.4793  -7.1718  -7.0826  -6.5555  -6.4691
    -6.3751  -6.0646  -5.6443  -5.4550  -5.3731  -4.9718  -4.8460  -4.6493
    -4.5561  -4.3570  -3.8753  -3.7696  -3.5743  -3.2769  -3.0753  -2.6963
    -2.5650  -2.3137  -2.2067  -2.0476  -1.9811  -1.8596  -1.5196  -1.4240
    -1.3839  -1.2653  -1.1906  -0.9587  -0.6771  -0.4584  -0.4011  -0.3674
     0.0802   0.1336   0.1755   0.3304   0.6826   0.7149   0.7321   0.8811
     0.9520   1.0352   1.0722   1.1213   1.2998   1.5386   1.5483   1.6231

          k = 0.2917 0.7939 0.0000 (193052 PWs)   bands (ev):

   -53.6765 -25.6117 -25.5928 -25.5901  -9.5270  -9.1525  -8.9033  -8.5305
    -8.5046  -8.1322  -7.8846  -7.5139  -7.1717  -6.8633  -6.8034  -6.4939
    -6.2485  -6.1634  -5.8813  -5.7979  -5.3409  -4.9779  -4.6663  -4.5446
    -4.3490  -4.2989  -4.1847  -4.0534  -3.9894  -3.6913  -2.7839  -2.4417
    -2.4094  -2.2733  -2.0761  -2.0191  -1.9190  -1.6881  -1.6676  -1.3398
    -1.2246  -1.1411  -0.8089  -0.5833  -0.5328  -0.3432  -0.1733  -0.0012
     0.2048   0.2377   0.3627   0.5178   0.5807   0.5958   0.7403   0.9262
     0.9733   0.9987   1.0597   1.1690   1.3287   1.4317   1.5141   1.6458

          k = 0.2917-0.7939 0.0000 (193052 PWs)   bands (ev):

   -53.6765 -25.6117 -25.5928 -25.5901  -9.5270  -9.1525  -8.9033  -8.5305
    -8.5046  -8.1322  -7.8846  -7.5139  -7.1717  -6.8633  -6.8034  -6.4939
    -6.2485  -6.1634  -5.8813  -5.7979  -5.3409  -4.9779  -4.6663  -4.5446
    -4.3490  -4.2989  -4.1847  -4.0534  -3.9894  -3.6913  -2.7839  -2.4417
    -2.4094  -2.2733  -2.0761  -2.0191  -1.9190  -1.6881  -1.6676  -1.3398
    -1.2246  -1.1411  -0.8089  -0.5833  -0.5328  -0.3432  -0.1733  -0.0012
     0.2048   0.2377   0.3627   0.5178   0.5807   0.5958   0.7403   0.9262
     0.9733   0.9987   1.0597   1.1690   1.3287   1.4317   1.5141   1.6458

          k = 0.2917-0.6495 0.0000 (192996 PWs)   bands (ev):

   -53.6765 -25.6117 -25.5928 -25.5901  -9.8398  -9.2148  -8.8158  -8.7168
    -8.1943  -8.0967  -7.6991  -7.4793  -7.1718  -7.0826  -6.5555  -6.4691
    -6.3751  -6.0646  -5.6443  -5.4550  -5.3731  -4.9718  -4.8460  -4.6493
    -4.5561  -4.3570  -3.8753  -3.7696  -3.5743  -3.2769  -3.0753  -2.6963
    -2.5650  -2.3137  -2.2067  -2.0476  -1.9811  -1.8596  -1.5196  -1.4240
    -1.3839  -1.2653  -1.1906  -0.9587  -0.6771  -0.4584  -0.4011  -0.3674
     0.0802   0.1336   0.1755   0.3304   0.6826   0.7149   0.7321   0.8811
     0.9520   1.0352   1.0722   1.1213   1.2998   1.5386   1.5483   1.6231

          k = 0.2917-0.5052 0.0000 (192991 PWs)   bands (ev):

   -53.6765 -25.6117 -25.5928 -25.5901 -10.0905  -9.4644  -9.0651  -8.4425
    -8.2205  -7.7260  -7.6026  -7.4193  -7.2056  -6.8017  -6.7141  -6.5917
    -5.8876  -5.8874  -5.5766  -5.2181  -5.0882  -4.9702  -4.8903  -4.8900
    -4.6004  -4.0770  -3.3980  -3.3112  -3.3082  -3.1470  -3.0811  -2.9314
    -2.8239  -2.7920  -2.5504  -2.5500  -2.2217  -2.2115  -1.6574  -1.6522
    -1.5185  -1.0701  -0.9254  -0.8891  -0.8762  -0.8175  -0.6256  -0.4569
    -0.3597  -0.1234   0.0539   0.1383   0.1442   0.2409   0.4687   0.5023
     0.8323   1.0614   1.1105   1.2068   1.2202   1.4473   1.6788   1.7576

          k = 0.2917-0.3608 0.0000 (192930 PWs)   bands (ev):

   -53.6765 -25.6117 -25.5928 -25.5901 -10.2789  -9.6520  -9.2525  -8.6290
    -7.9112  -7.6644  -7.6051  -7.0490  -6.9866  -6.8982  -6.6529  -6.0703
    -6.0421  -5.4037  -5.3415  -5.2703  -5.0718  -5.0296  -4.7844  -4.4292
    -4.3515  -4.0187  -3.5393  -3.4888  -3.4277  -3.1124  -3.0478  -2.9819
    -2.8714  -2.8482  -2.7280  -2.5954  -2.4027  -2.3605  -2.3435  -1.8288
    -1.6658  -1.5371  -1.0561  -0.8321  -0.7995  -0.7878  -0.6630  -0.5919
    -0.3812  -0.3065  -0.2965  -0.0213   0.1056   0.1639   0.2955   0.3342
     0.3730   0.9004   0.9061   1.0605   1.0767   1.2436   1.2776   1.3298

          k = 0.2917-0.2165 0.0000 (192850 PWs)   bands (ev):

   -53.6765 -25.6117 -25.5928 -25.5900 -10.4046  -9.7771  -9.3775  -8.7535
    -8.0349  -7.7292  -7.1102  -7.0488  -7.0210  -6.4364  -6.1923  -6.0418
    -5.5273  -5.4343  -5.3918  -5.1928  -4.9073  -4.8576  -4.7397  -4.4272
    -4.2575  -3.8729  -3.8389  -3.7603  -3.6075  -3.3033  -3.2288  -3.0977
    -2.9520  -2.8467  -2.6330  -2.5134  -2.3957  -2.3013  -2.2193  -1.9456
    -1.8776  -1.8633  -1.4738  -1.2271  -1.1672  -0.9158  -0.8107  -0.4365
    -0.3619  -0.1342  -0.1253   0.0348   0.0894   0.1165   0.1793   0.2138
     0.3743   0.4482   0.5925   0.7329   0.7892   0.9628   1.1622   1.4047

          k = 0.2917-0.0722 0.0000 (192893 PWs)   bands (ev):

   -53.6765 -25.6117 -25.5928 -25.5900 -10.4675  -9.8397  -9.4401  -8.8158
    -8.0967  -7.7913  -7.1719  -7.0825  -6.3752  -6.2533  -5.7663  -5.6445
    -5.5890  -5.4528  -5.3729  -5.2533  -5.0402  -4.9687  -4.7712  -4.6490
    -4.0950  -4.0396  -3.7726  -3.6670  -3.3844  -3.2900  -3.2048  -3.1585
    -3.1504  -3.0733  -2.9061  -2.5717  -2.4327  -2.3543  -2.3137  -2.0038
    -1.8585  -1.4245  -1.3931  -1.3596  -1.2285  -0.9820  -0.9437  -0.6808
    -0.5719  -0.4854  -0.4452  -0.1907  -0.1558   0.1192   0.1564   0.3299
     0.7047   0.7355   0.7809   0.9041   0.9505   1.0639   1.1047   1.3426

          k = 0.3750 0.0722 0.0000 (192872 PWs)   bands (ev):

   -53.6765 -25.6117 -25.5928 -25.5900 -10.3837 -10.0068  -9.3567  -8.9820
    -7.7673  -7.7084  -7.3366  -6.7552  -6.6607  -6.2938  -5.9283  -5.6572
    -5.5637  -5.5053  -5.2926  -5.2008  -5.1387  -5.1240  -4.9310  -4.5695
    -4.2144  -4.0535  -3.7607  -3.6955  -3.3664  -3.1059  -3.0474  -3.0105
    -2.9570  -2.9233  -2.7261  -2.6902  -2.4840  -2.4305  -2.0883  -2.0787
    -1.8810  -1.7364  -1.5358  -1.1257  -1.0913  -1.0090  -0.8053  -0.7703
    -0.6805  -0.4695  -0.3254  -0.3037  -0.2855  -0.0078   0.0396   0.3216
     0.5228   0.5479   0.6385   0.7374   0.8710   1.0519   1.2032   1.3019

          k = 0.3750 0.2165 0.0000 (192883 PWs)   bands (ev):

   -53.6765 -25.6117 -25.5928 -25.5900 -10.3208  -9.9441  -9.2942  -8.9196
    -7.7056  -7.6464  -7.2748  -6.9671  -6.6939  -6.5999  -6.5990  -5.9606
    -5.5988  -5.5939  -5.4431  -5.0777  -5.0629  -4.7777  -4.4472  -4.3884
    -4.3477  -3.9991  -3.9883  -3.7960  -3.4705  -3.4285  -3.3423  -3.0440
    -2.8977  -2.6675  -2.5157  -2.3731  -2.3710  -2.2444  -2.0732  -2.0680
    -1.8296  -1.8155  -1.4719  -1.1636  -1.0716  -1.0556  -0.7439  -0.6894
    -0.4179  -0.2425  -0.1645   0.0046   0.0920   0.2599   0.3310   0.3736
     0.3837   0.5010   0.5795   0.5938   0.6164   0.7969   0.8106   1.4258

          k = 0.3750 0.3608 0.0000 (192896 PWs)   bands (ev):

   -53.6765 -25.6117 -25.5928 -25.5901 -10.1952  -9.8188  -9.1692  -8.7950
    -7.5828  -7.5817  -7.5223  -7.2128  -7.1511  -6.5735  -6.5691  -6.4771
    -6.2046  -5.4749  -5.3201  -5.0194  -4.9618  -4.9438  -4.9400  -4.5884
    -4.0348  -3.9692  -3.9062  -3.8741  -3.5810  -3.0012  -2.9542  -2.9271
    -2.7907  -2.7757  -2.7469  -2.5515  -2.4723  -2.3060  -2.2543  -1.7068
    -1.6146  -1.3972  -1.0119  -0.9476  -0.9163  -0.6463  -0.6083  -0.4013
    -0.3012  -0.1608  -0.1316  -0.1172   0.0447   0.1482   0.2145   0.4859
     0.5306   0.6935   0.7033   0.7230   0.9094   1.1321   1.2095   1.2494

          k = 0.3750 0.5052 0.0000 (192945 PWs)   bands (ev):

   -53.6765 -25.6117 -25.5928 -25.5901 -10.0069  -9.6311  -8.9820  -8.6083
    -8.1380  -7.7671  -7.3974  -7.3367  -7.1237  -6.9659  -6.7551  -6.3877
    -6.2938  -5.5636  -5.4954  -5.2930  -5.1414  -5.1243  -4.7728  -4.7578
    -4.5694  -4.4765  -3.6954  -3.4988  -3.3172  -3.0449  -3.0136  -2.9666
    -2.7448  -2.6902  -2.6027  -2.3709  -2.2273  -2.0786  -1.7822  -1.7365
    -1.5344  -0.9986  -0.7900  -0.7714  -0.6755  -0.4603  -0.4312  -0.3422
    -0.3155  -0.1101  -0.0013   0.0506   0.2522   0.3833   0.5054   0.5295
     0.6409   0.8675   0.8882   1.0674   1.1095   1.2983   1.4635   1.6739

          k = 0.3750 0.6495 0.0000 (193025 PWs)   bands (ev):

   -53.6765 -25.6117 -25.5928 -25.5901  -9.7563  -9.3811  -8.7327  -8.6340
    -8.3597  -8.2617  -7.6167  -7.2469  -7.1513  -7.0892  -6.7194  -6.1434
    -6.0499  -6.0497  -5.9829  -5.6171  -5.0513  -5.0503  -4.9578  -4.8885
    -4.5307  -4.5145  -3.9704  -3.7938  -3.4615  -3.4571  -3.4298  -2.5112
    -2.4341  -2.3703  -2.1362  -2.0999  -1.8456  -1.8447  -1.4492  -1.3119
    -1.3047  -1.1622  -1.0954  -0.7807  -0.5592  -0.5472  -0.2396  -0.1458
     0.1103   0.2548   0.2763   0.3900   0.6023   0.7516   0.7620   0.9114
     0.9803   1.0065   1.0347   1.0968   1.2679   1.3082   1.3137   1.3651

          k = 0.3750 0.7939 0.0000 (193030 PWs)   bands (ev):

   -53.6765 -25.6117 -25.5928 -25.5901  -9.4437  -9.0698  -9.0689  -8.6960
    -8.4218  -8.0519  -8.0474  -7.6785  -6.8444  -6.7810  -6.4771  -6.4176
    -6.4063  -6.0442  -5.8385  -5.7453  -5.4740  -5.3812  -4.7492  -4.5834
    -4.3886  -4.2377  -4.2165  -4.2028  -3.8706  -3.8488  -3.1632  -2.8151
    -2.2212  -2.0871  -1.8764  -1.8291  -1.7745  -1.5543  -1.4907  -1.2488
    -1.1395  -1.0547  -0.7063  -0.6807  -0.3520  -0.1091  -0.0498   0.0645
     0.2201   0.2496   0.3570   0.4011   0.5870   0.6521   0.7602   0.8321
     0.8802   0.9477   1.0355   1.3344   1.3573   1.3797   1.3966   1.4630

          k = 0.3750-0.7939 0.0000 (193030 PWs)   bands (ev):

   -53.6765 -25.6117 -25.5928 -25.5901  -9.4437  -9.0698  -9.0689  -8.6960
    -8.4218  -8.0519  -8.0474  -7.6785  -6.8444  -6.7810  -6.4771  -6.4176
    -6.4063  -6.0442  -5.8385  -5.7453  -5.4740  -5.3812  -4.7492  -4.5834
    -4.3886  -4.2377  -4.2165  -4.2028  -3.8706  -3.8488  -3.1632  -2.8151
    -2.2212  -2.0871  -1.8764  -1.8291  -1.7745  -1.5543  -1.4907  -1.2488
    -1.1395  -1.0547  -0.7063  -0.6807  -0.3520  -0.1091  -0.0498   0.0645
     0.2201   0.2496   0.3570   0.4011   0.5870   0.6521   0.7602   0.8321
     0.8802   0.9477   1.0355   1.3344   1.3573   1.3797   1.3966   1.4630

          k = 0.3750-0.6495 0.0000 (193025 PWs)   bands (ev):

   -53.6765 -25.6117 -25.5928 -25.5901  -9.7563  -9.3811  -8.7327  -8.6340
    -8.3597  -8.2617  -7.6167  -7.2469  -7.1513  -7.0892  -6.7194  -6.1434
    -6.0499  -6.0497  -5.9829  -5.6171  -5.0513  -5.0503  -4.9578  -4.8885
    -4.5307  -4.5145  -3.9704  -3.7938  -3.4615  -3.4571  -3.4298  -2.5112
    -2.4341  -2.3703  -2.1362  -2.0999  -1.8456  -1.8447  -1.4492  -1.3119
    -1.3047  -1.1622  -1.0954  -0.7807  -0.5592  -0.5472  -0.2396  -0.1458
     0.1103   0.2548   0.2763   0.3900   0.6023   0.7516   0.7620   0.9114
     0.9803   1.0065   1.0347   1.0968   1.2679   1.3082   1.3137   1.3651

          k = 0.3750-0.5052 0.0000 (192945 PWs)   bands (ev):

   -53.6765 -25.6117 -25.5928 -25.5901 -10.0069  -9.6311  -8.9820  -8.6083
    -8.1380  -7.7671  -7.3974  -7.3367  -7.1237  -6.9659  -6.7551  -6.3877
    -6.2938  -5.5636  -5.4954  -5.2930  -5.1414  -5.1243  -4.7728  -4.7578
    -4.5694  -4.4765  -3.6954  -3.4988  -3.3172  -3.0449  -3.0136  -2.9666
    -2.7448  -2.6902  -2.6027  -2.3709  -2.2273  -2.0786  -1.7822  -1.7365
    -1.5344  -0.9986  -0.7900  -0.7714  -0.6755  -0.4603  -0.4312  -0.3422
    -0.3155  -0.1101  -0.0013   0.0506   0.2522   0.3833   0.5054   0.5295
     0.6409   0.8675   0.8882   1.0674   1.1095   1.2983   1.4635   1.6739

          k = 0.3750-0.3608 0.0000 (192896 PWs)   bands (ev):

   -53.6765 -25.6117 -25.5928 -25.5901 -10.1952  -9.8188  -9.1692  -8.7950
    -7.5828  -7.5817  -7.5223  -7.2128  -7.1511  -6.5735  -6.5691  -6.4771
    -6.2046  -5.4749  -5.3201  -5.0194  -4.9618  -4.9438  -4.9400  -4.5884
    -4.0348  -3.9692  -3.9062  -3.8741  -3.5810  -3.0012  -2.9542  -2.9271
    -2.7907  -2.7757  -2.7469  -2.5515  -2.4723  -2.3060  -2.2543  -1.7068
    -1.6146  -1.3972  -1.0119  -0.9476  -0.9163  -0.6463  -0.6083  -0.4013
    -0.3012  -0.1608  -0.1316  -0.1172   0.0447   0.1482   0.2145   0.4859
     0.5306   0.6935   0.7033   0.7230   0.9094   1.1321   1.2095   1.2494

          k = 0.3750-0.2165 0.0000 (192883 PWs)   bands (ev):

   -53.6765 -25.6117 -25.5928 -25.5900 -10.3208  -9.9441  -9.2942  -8.9196
    -7.7056  -7.6464  -7.2748  -6.9671  -6.6939  -6.5999  -6.5990  -5.9606
    -5.5988  -5.5939  -5.4431  -5.0777  -5.0629  -4.7777  -4.4472  -4.3884
    -4.3477  -3.9991  -3.9883  -3.7960  -3.4705  -3.4285  -3.3423  -3.0440
    -2.8977  -2.6675  -2.5157  -2.3731  -2.3710  -2.2444  -2.0732  -2.0680
    -1.8296  -1.8155  -1.4719  -1.1636  -1.0716  -1.0556  -0.7439  -0.6894
    -0.4179  -0.2425  -0.1645   0.0046   0.0920   0.2599   0.3310   0.3736
     0.3837   0.5010   0.5795   0.5938   0.6164   0.7969   0.8106   1.4258

          k = 0.3750-0.0722 0.0000 (192872 PWs)   bands (ev):

   -53.6765 -25.6117 -25.5928 -25.5900 -10.3837 -10.0068  -9.3567  -8.9820
    -7.7673  -7.7084  -7.3366  -6.7552  -6.6607  -6.2938  -5.9283  -5.6572
    -5.5637  -5.5053  -5.2926  -5.2008  -5.1387  -5.1240  -4.9310  -4.5695
    -4.2144  -4.0535  -3.7607  -3.6955  -3.3664  -3.1059  -3.0474  -3.0105
    -2.9570  -2.9233  -2.7261  -2.6902  -2.4840  -2.4305  -2.0883  -2.0787
    -1.8810  -1.7364  -1.5358  -1.1257  -1.0913  -1.0090  -0.8053  -0.7703
    -0.6805  -0.4695  -0.3254  -0.3037  -0.2855  -0.0078   0.0396   0.3216
     0.5228   0.5479   0.6385   0.7374   0.8710   1.0519   1.2032   1.3019

          k = 0.4583 0.0722 0.0000 (192888 PWs)   bands (ev):

   -53.6765 -25.6117 -25.5928 -25.5900 -10.2790 -10.1531  -9.2525  -9.1276
    -7.6054  -7.4810  -7.4177  -7.0489  -6.4083  -6.1923  -6.0702  -6.0421
    -5.4629  -5.4045  -5.3414  -5.2745  -5.1916  -5.0713  -4.7886  -4.4703
    -4.4292  -4.3515  -3.6009  -3.4889  -3.4277  -3.0885  -3.0122  -2.9058
    -2.8645  -2.8476  -2.7279  -2.6473  -2.3967  -2.3678  -2.3449  -2.0593
    -1.8290  -1.6657  -1.6367  -1.1603  -1.0606  -0.9893  -0.8175  -0.6795
    -0.6591  -0.4582  -0.3672  -0.2926  -0.2553  -0.0401  -0.0211   0.0292
     0.1760   0.3101   0.7412   0.9061   0.9400   1.0775   1.3288   1.4753

          k = 0.4583 0.2165 0.0000 (192855 PWs)   bands (ev):

   -53.6765 -25.6117 -25.5928 -25.5900 -10.2162 -10.0904  -9.1900  -9.0651
    -7.5434  -7.4191  -7.3561  -6.9875  -6.8650  -6.7421  -6.3471  -5.9812
    -5.8592  -5.7377  -5.3423  -5.2125  -4.7283  -4.6780  -4.5589  -4.3691
    -4.2491  -4.1305  -4.0773  -3.7389  -3.6779  -3.5816  -3.1254  -2.9508
    -2.8025  -2.7916  -2.5887  -2.3098  -2.2110  -2.1884  -2.0824  -2.0467
    -1.7351  -1.6067  -1.4893  -1.2970  -1.1015  -1.0150  -0.7990  -0.6084
    -0.4925  -0.3897  -0.1992   0.0172   0.0862   0.1264   0.2308   0.2544
     0.3183   0.4400   0.7115   0.7408   0.8009   0.9166   0.9629   1.0725

          k = 0.4583 0.3608 0.0000 (192914 PWs)   bands (ev):

   -53.6765 -25.6117 -25.5928 -25.5901 -10.0906  -9.9649  -9.0652  -8.9404
    -7.4796  -7.4195  -7.3561  -7.2952  -7.2331  -6.8648  -6.4694  -6.3471
    -6.2248  -5.8592  -5.2194  -5.0897  -4.8488  -4.7283  -4.6779  -4.6073
    -4.3186  -4.2487  -3.8380  -3.7387  -3.6779  -3.3439  -2.8907  -2.8393
    -2.7981  -2.6992  -2.6733  -2.5864  -2.4709  -2.1928  -2.0818  -1.8174
    -1.4893  -1.1019  -1.0668  -1.0143  -0.9848  -0.8122  -0.4941  -0.3453
    -0.2071  -0.1986  -0.0835   0.0807   0.1255   0.1401   0.2056   0.3350
     0.3571   0.3625   0.6402   0.9127   0.9156   1.0724   1.3504   1.5330

          k = 0.4583 0.5052 0.0000 (192934 PWs)   bands (ev):

   -53.6765 -25.6117 -25.5928 -25.5901  -9.9025  -9.7770  -8.8781  -8.7535
    -8.0350  -7.9111  -7.2340  -7.1100  -7.0488  -7.0210  -6.8983  -6.6809
    -6.0418  -5.6767  -5.3946  -5.2729  -5.2200  -5.0334  -4.9046  -4.8575
    -4.4269  -4.2301  -4.0690  -3.8728  -3.2218  -3.0990  -2.9522  -2.8519
    -2.6771  -2.6471  -2.4988  -2.3956  -2.2963  -2.0197  -1.8736  -1.8243
    -1.3144  -0.9250  -0.8112  -0.8050  -0.4584  -0.3694  -0.3195  -0.1543
    -0.1203  -0.1076  -0.0638   0.0841   0.1824   0.3080   0.3795   0.4480
     0.5155   0.8361   0.8952   1.0688   1.1609   1.2294   1.4032   1.7171

          k = 0.4583 0.6495 0.0000 (193044 PWs)   bands (ev):

   -53.6765 -25.6117 -25.5928 -25.5901  -9.6521  -9.5268  -8.6290  -8.5306
    -8.5046  -8.4062  -7.5139  -7.3906  -6.9867  -6.8630  -6.8033  -6.4362
    -5.8817  -5.7980  -5.7591  -5.7048  -5.4337  -5.3408  -4.7890  -4.7086
    -4.6597  -4.3487  -4.1868  -3.8303  -3.6957  -3.5701  -3.1270  -2.7836
    -2.4175  -2.2629  -2.0670  -2.0193  -1.9255  -1.7921  -1.3629  -1.2177
    -1.1833  -1.1393  -1.0842  -0.5851  -0.5705  -0.5318  -0.1011  -0.0018
     0.1268   0.2889   0.4341   0.5163   0.5319   0.6067   0.6592   0.6874
     0.7452   0.8920   1.1620   1.2289   1.2611   1.3330   1.4133   1.4262

          k = 0.4583 0.7939 0.0000 (193019 PWs)   bands (ev):

   -53.6765 -25.6117 -25.5928 -25.5901  -9.3397  -9.2146  -8.9657  -8.8410
    -8.3183  -8.1943  -7.9464  -7.8227  -6.6788  -6.5554  -6.4972  -6.3097
    -6.1869  -6.1309  -6.1308  -5.7656  -5.4942  -5.1312  -5.1306  -4.7689
    -4.4839  -4.3554  -4.1166  -3.9901  -3.8878  -3.5332  -3.5326  -3.1810
    -2.1284  -1.9710  -1.7948  -1.7581  -1.6182  -1.5190  -1.5149  -1.3069
    -0.8952  -0.8121  -0.8111  -0.4623  -0.3216  -0.0169  -0.0162   0.1109
     0.1344   0.2668   0.2858   0.4012   0.5588   0.6739   0.7904   0.8231
     0.9054   0.9687   0.9752   1.0552   1.2152   1.2200   1.2441   1.4510

          k = 0.4583-0.7939 0.0000 (193019 PWs)   bands (ev):

   -53.6765 -25.6117 -25.5928 -25.5901  -9.3397  -9.2146  -8.9657  -8.8410
    -8.3183  -8.1943  -7.9464  -7.8227  -6.6788  -6.5554  -6.4972  -6.3097
    -6.1869  -6.1309  -6.1308  -5.7656  -5.4942  -5.1312  -5.1306  -4.7689
    -4.4839  -4.3554  -4.1166  -3.9901  -3.8878  -3.5332  -3.5326  -3.1810
    -2.1284  -1.9710  -1.7948  -1.7581  -1.6182  -1.5190  -1.5149  -1.3069
    -0.8952  -0.8121  -0.8111  -0.4623  -0.3216  -0.0169  -0.0162   0.1109
     0.1344   0.2668   0.2858   0.4012   0.5588   0.6739   0.7904   0.8231
     0.9054   0.9687   0.9752   1.0552   1.2152   1.2200   1.2441   1.4510

          k = 0.4583-0.6495 0.0000 (193044 PWs)   bands (ev):

   -53.6765 -25.6117 -25.5928 -25.5901  -9.6521  -9.5268  -8.6290  -8.5306
    -8.5046  -8.4062  -7.5139  -7.3906  -6.9867  -6.8630  -6.8033  -6.4362
    -5.8817  -5.7980  -5.7591  -5.7048  -5.4337  -5.3408  -4.7890  -4.7086
    -4.6597  -4.3487  -4.1868  -3.8303  -3.6957  -3.5701  -3.1270  -2.7836
    -2.4175  -2.2629  -2.0670  -2.0193  -1.9255  -1.7921  -1.3629  -1.2177
    -1.1833  -1.1393  -1.0842  -0.5851  -0.5705  -0.5318  -0.1011  -0.0018
     0.1268   0.2889   0.4341   0.5163   0.5319   0.6067   0.6592   0.6874
     0.7452   0.8920   1.1620   1.2289   1.2611   1.3330   1.4133   1.4262

          k = 0.4583-0.5052 0.0000 (192934 PWs)   bands (ev):

   -53.6765 -25.6117 -25.5928 -25.5901  -9.9025  -9.7770  -8.8781  -8.7535
    -8.0350  -7.9111  -7.2340  -7.1100  -7.0488  -7.0210  -6.8983  -6.6809
    -6.0418  -5.6767  -5.3946  -5.2729  -5.2200  -5.0334  -4.9046  -4.8575
    -4.4269  -4.2301  -4.0690  -3.8728  -3.2218  -3.0990  -2.9522  -2.8519
    -2.6771  -2.6471  -2.4988  -2.3956  -2.2963  -2.0197  -1.8736  -1.8243
    -1.3144  -0.9250  -0.8112  -0.8050  -0.4584  -0.3694  -0.3195  -0.1543
    -0.1203  -0.1076  -0.0638   0.0841   0.1824   0.3080   0.3795   0.4480
     0.5155   0.8361   0.8952   1.0688   1.1609   1.2294   1.4032   1.7171

          k = 0.4583-0.3608 0.0000 (192914 PWs)   bands (ev):

   -53.6765 -25.6117 -25.5928 -25.5901 -10.0906  -9.9649  -9.0652  -8.9404
    -7.4796  -7.4195  -7.3561  -7.2952  -7.2331  -6.8648  -6.4694  -6.3471
    -6.2248  -5.8592  -5.2194  -5.0897  -4.8488  -4.7283  -4.6779  -4.6073
    -4.3186  -4.2487  -3.8380  -3.7387  -3.6779  -3.3439  -2.8907  -2.8393
[...]

     atom    1 type  1   force =     0.00001143   -0.00000000   -0.00161122
     atom    2 type  1   force =     0.00086084   -0.00000000   -0.00414551
     atom    3 type  1   force =    -0.00065122   -0.00000000    0.00457350
     atom    4 type  1   force =    -0.00007362    0.00000000    0.00107700
     atom    5 type  1   force =     0.00070436   -0.00000000    0.00466301
     atom    6 type  1   force =     0.00002339   -0.00000000    0.00320925
     atom    7 type  1   force =    -0.00078346    0.00000000   -0.00441850
     atom    8 type  1   force =    -0.00003911    0.00011468    0.00458744
     atom    9 type  1   force =     0.00066871   -0.00039500    0.00217828
     atom   10 type  1   force =    -0.00028973   -0.00004222   -0.00363840
     atom   11 type  1   force =     0.00045258    0.00003462   -0.00488539
     atom   12 type  1   force =     0.00034809    0.00024848   -0.00478852
     atom   13 type  1   force =    -0.00021895    0.00023951   -0.00492207
     atom   14 type  1   force =    -0.00095398   -0.00005503    0.00242944
     atom   15 type  1   force =     0.00031127    0.00042442    0.00316177
     atom   16 type  1   force =    -0.00003911   -0.00011468    0.00458744
     atom   17 type  1   force =     0.00066871    0.00039500    0.00217828
     atom   18 type  1   force =    -0.00028973    0.00004222   -0.00363840
     atom   19 type  1   force =     0.00045258   -0.00003462   -0.00488539
     atom   20 type  1   force =     0.00034809   -0.00024848   -0.00478852
     atom   21 type  1   force =    -0.00021895   -0.00023951   -0.00492207
     atom   22 type  1   force =    -0.00095398    0.00005503    0.00242944
     atom   23 type  1   force =     0.00031127   -0.00042442    0.00316177
     atom   24 type  1   force =     0.00004365    0.00000000    0.00457183
     atom   25 type  1   force =     0.00040451   -0.00000000    0.00308611
     atom   26 type  1   force =    -0.00071013    0.00000000   -0.00469947
     atom   27 type  1   force =    -0.00056119    0.00000000   -0.00805818
     atom   28 type  1   force =     0.00052319   -0.00000000   -0.00382418
     atom   29 type  1   force =     0.00022681   -0.00000000   -0.00195658
     atom   30 type  1   force =     0.00005516    0.00000000    0.00164524
     atom   31 type  1   force =    -0.00062098    0.00000000    0.00321908
     atom   32 type  1   force =    -0.00001625   -0.00000000    0.01540157
     atom   33 type  2   force =     0.00000577    0.00000000   -0.00097804
     The non-local contrib.  to forces
     atom    1 type  1   force =     0.00034288    0.00000000   -0.03675133
     atom    2 type  1   force =    -0.00142205   -0.00000000   -0.00377531
     atom    3 type  1   force =     0.00091319   -0.00000000    0.00682204
     atom    4 type  1   force =    -0.00016674    0.00000000    0.03905900
     atom    5 type  1   force =    -0.00078660    0.00000000    0.00767235
     atom    6 type  1   force =     0.00001526   -0.00000000    0.04252799
     atom    7 type  1   force =     0.00114356   -0.00000000   -0.00522559
     atom    8 type  1   force =     0.00161334    0.00021523    0.00749053
     atom    9 type  1   force =     0.00011265    0.00003561    0.04050497
     atom   10 type  1   force =    -0.00027520    0.00048788   -0.00408494
     atom   11 type  1   force =    -0.00068208   -0.00032094   -0.03882737
     atom   12 type  1   force =     0.00007308   -0.00018635   -0.00623767
     atom   13 type  1   force =     0.00029805   -0.00053839   -0.03800223
     atom   14 type  1   force =    -0.00028373    0.00002615    0.03980606
     atom   15 type  1   force =    -0.00134277    0.00007020    0.00426128
     atom   16 type  1   force =     0.00161334   -0.00021523    0.00749053
     atom   17 type  1   force =     0.00011265   -0.00003561    0.04050497
     atom   18 type  1   force =    -0.00027520   -0.00048788   -0.00408494
     atom   19 type  1   force =    -0.00068208    0.00032094   -0.03882737
     atom   20 type  1   force =     0.00007308    0.00018635   -0.00623767
     atom   21 type  1   force =     0.00029805    0.00053839   -0.03800223
     atom   22 type  1   force =    -0.00028373   -0.00002615    0.03980606
     atom   23 type  1   force =    -0.00134277   -0.00007020    0.00426128
     atom   24 type  1   force =    -0.00145081    0.00000000    0.00731596
     atom   25 type  1   force =    -0.00031117   -0.00000000    0.04151200
     atom   26 type  1   force =     0.00024100    0.00000000   -0.00586420
     atom   27 type  1   force =     0.00007621    0.00000000   -0.04267531
     atom   28 type  1   force =    -0.00083441    0.00000000   -0.00441652
     atom   29 type  1   force =     0.00073717    0.00000000   -0.03637614
     atom   30 type  1   force =     0.00003098    0.00000000    0.03864816
     atom   31 type  1   force =     0.00141118    0.00000000    0.00438330
     atom   32 type  1   force =    -0.00015276    0.00000000    0.01143694
     atom   33 type  2   force =    -0.00001002   -0.00000000   -0.32059352
     The ionic contribution  to forces
     atom    1 type  1   force =    -0.00000000   -0.00000000   -8.37606502
     atom    2 type  1   force =    -0.02536111   -0.00000000    3.95345377
     atom    3 type  1   force =     0.11081009   -0.00000000   -1.94142688
     atom    4 type  1   force =    -0.00000006   -0.00000000    9.82567551
     atom    5 type  1   force =    -0.11081017   -0.00000000   -2.04750200
     atom    6 type  1   force =     0.00000077   -0.00000000    9.83912590
     atom    7 type  1   force =     0.02536116    0.00000000    3.92595344
     atom    8 type  1   force =     0.06032958    0.00481562   -2.09630161
     atom    9 type  1   force =    -0.00667348    0.00006960    9.83234840
     atom   10 type  1   force =     0.01487576    0.00129928    3.96558533
     atom   11 type  1   force =    -0.54905601    0.11523895   -7.97428501
     atom   12 type  1   force =    -0.01443416   -0.00053435    3.91484010
     atom   13 type  1   force =     0.54905516   -0.11523890   -7.97428441
     atom   14 type  1   force =     0.00667272   -0.00006960    9.83234754
     atom   15 type  1   force =    -0.06886813   -0.01960496   -1.87323836
     atom   16 type  1   force =     0.06032958   -0.00481562   -2.09630161
     atom   17 type  1   force =    -0.00667348   -0.00006960    9.83234840
     atom   18 type  1   force =     0.01487576   -0.00129928    3.96558533
     atom   19 type  1   force =    -0.54905601   -0.11523895   -7.97428501
     atom   20 type  1   force =    -0.01443416    0.00053435    3.91484010
     atom   21 type  1   force =     0.54905516    0.11523890   -7.97428441
     atom   22 type  1   force =     0.00667272    0.00006960    9.83234754
     atom   23 type  1   force =    -0.06886813    0.01960496   -1.87323836
     atom   24 type  1   force =    -0.10383394   -0.00000000   -2.06024273
     atom   25 type  1   force =     0.00000077   -0.00000000    9.83893237
     atom   26 type  1   force =     0.02495071    0.00000000    3.92466820
     atom   27 type  1   force =     0.00000071   -0.00000000   -7.59590775
     atom   28 type  1   force =    -0.02583392   -0.00000000    3.95575694
     atom   29 type  1   force =    -0.00000000   -0.00000000   -8.35266187
     atom   30 type  1   force =    -0.00000006    0.00000000    9.82576353
     atom   31 type  1   force =     0.12091112    0.00000000   -1.90929750
     atom   32 type  1   force =     0.00000071    0.00000000   -6.74874263
     atom   33 type  2   force =     0.00000032   -0.00000000  -31.31150724
     The local contribution  to forces
     atom    1 type  1   force =    -0.00030651   -0.00000000    8.38651581
     atom    2 type  1   force =     0.02755263    0.00000000   -3.97452896
     atom    3 type  1   force =    -0.11232171    0.00000000    1.91903946
     atom    4 type  1   force =     0.00008287   -0.00000000   -9.87985371
     atom    5 type  1   force =     0.11225603   -0.00000000    2.02440993
     atom    6 type  1   force =     0.00000810    0.00000000   -9.89440485
     atom    7 type  1   force =    -0.02721597    0.00000000   -3.94594520
     atom    8 type  1   force =    -0.06187792   -0.00490284    2.07330530
     atom    9 type  1   force =     0.00724910   -0.00049681   -9.88677139
     atom   10 type  1   force =    -0.01491667   -0.00179674   -3.98587302
     atom   11 type  1   force =     0.55015848   -0.11490435    7.98339694
     atom   12 type  1   force =     0.01472046    0.00095510   -3.93425310
     atom   13 type  1   force =    -0.54956698    0.11597914    7.98258804
     atom   14 type  1   force =    -0.00737273   -0.00000909   -9.88586630
     atom   15 type  1   force =     0.07043382    0.01995912    1.85185133
     atom   16 type  1   force =    -0.06187792    0.00490284    2.07330530
     atom   17 type  1   force =     0.00724910    0.00049681   -9.88677139
     atom   18 type  1   force =    -0.01491667    0.00179674   -3.98587302
     atom   19 type  1   force =     0.55015848    0.11490435    7.98339694
     atom   20 type  1   force =     0.01472046   -0.00095510   -3.93425310
     atom   21 type  1   force =    -0.54956698   -0.11597914    7.98258804
     atom   22 type  1   force =    -0.00737273    0.00000909   -9.88586630
     atom   23 type  1   force =     0.07043382   -0.01995912    1.85185133
     atom   24 type  1   force =     0.10524438    0.00000000    2.03739351
     atom   25 type  1   force =     0.00069135   -0.00000000   -9.89338351
     atom   26 type  1   force =    -0.02589195   -0.00000000   -3.94434139
     atom   27 type  1   force =    -0.00063176    0.00000000    7.60542710
     atom   28 type  1   force =     0.02714367    0.00000000   -3.97591941
     atom   29 type  1   force =    -0.00046120   -0.00000000    8.36241936
     atom   30 type  1   force =     0.00002768    0.00000000   -9.87898901
     atom   31 type  1   force =    -0.12285564    0.00000000    1.88785382
     atom   32 type  1   force =     0.00012365   -0.00000000    6.73163862
     atom   33 type  2   force =     0.00001177    0.00000000   31.56956053
     The core correction contribution to forces
     atom    1 type  1   force =    -0.00002238   -0.00000000    0.00416895
     atom    2 type  1   force =     0.00009962    0.00000000    0.00018323
     atom    3 type  1   force =    -0.00006247    0.00000000   -0.00037794
     atom    4 type  1   force =     0.00001165   -0.00000000   -0.00432357
     atom    5 type  1   force =     0.00005473   -0.00000000   -0.00043562
     atom    6 type  1   force =    -0.00000212    0.00000000   -0.00456472
     atom    7 type  1   force =    -0.00008018    0.00000000    0.00027726
     atom    8 type  1   force =    -0.00010681   -0.00001341   -0.00042491
     atom    9 type  1   force =    -0.00001019   -0.00000346   -0.00442665
     atom   10 type  1   force =     0.00001934   -0.00003267    0.00021296
     atom   11 type  1   force =     0.00003940    0.00002087    0.00431301
     atom   12 type  1   force =    -0.00000444    0.00001425    0.00034013
     atom   13 type  1   force =    -0.00001232    0.00003776    0.00425857
     atom   14 type  1   force =     0.00002046   -0.00000241   -0.00437956
     atom   15 type  1   force =     0.00009114    0.00000016   -0.00022956
     atom   16 type  1   force =    -0.00010681    0.00001341   -0.00042491
     atom   17 type  1   force =    -0.00001019    0.00000346   -0.00442665
     atom   18 type  1   force =     0.00001934    0.00003267    0.00021296
     atom   19 type  1   force =     0.00003940   -0.00002087    0.00431301
     atom   20 type  1   force =    -0.00000444   -0.00001425    0.00034013
     atom   21 type  1   force =    -0.00001232   -0.00003776    0.00425857
     atom   22 type  1   force =     0.00002046    0.00000241   -0.00437956
     atom   23 type  1   force =     0.00009114   -0.00000016   -0.00022956
     atom   24 type  1   force =     0.00009361    0.00000000   -0.00041329
     atom   25 type  1   force =     0.00002217   -0.00000000   -0.00449968
     atom   26 type  1   force =    -0.00001792   -0.00000000    0.00031631
     atom   27 type  1   force =    -0.00000897   -0.00000000    0.00458316
     atom   28 type  1   force =     0.00005602    0.00000000    0.00023304
     atom   29 type  1   force =    -0.00004661   -0.00000000    0.00414177
     atom   30 type  1   force =    -0.00000212   -0.00000000   -0.00429730
     atom   31 type  1   force =    -0.00009732   -0.00000000   -0.00023744
     atom   32 type  1   force =     0.00000956   -0.00000000    0.00055406
     atom   33 type  2   force =     0.00000000    0.00000000    0.00000000
     The Hubbard contrib.    to forces
     atom    1 type  1   force =     0.00000000    0.00000000    0.00000000
     atom    2 type  1   force =     0.00000000    0.00000000    0.00000000
     atom    3 type  1   force =     0.00000000    0.00000000    0.00000000
     atom    4 type  1   force =     0.00000000    0.00000000    0.00000000
     atom    5 type  1   force =     0.00000000    0.00000000    0.00000000
     atom    6 type  1   force =     0.00000000    0.00000000    0.00000000
     atom    7 type  1   force =     0.00000000    0.00000000    0.00000000
     atom    8 type  1   force =     0.00000000    0.00000000    0.00000000
     atom    9 type  1   force =     0.00000000    0.00000000    0.00000000
     atom   10 type  1   force =     0.00000000    0.00000000    0.00000000
     atom   11 type  1   force =     0.00000000    0.00000000    0.00000000
     atom   12 type  1   force =     0.00000000    0.00000000    0.00000000
     atom   13 type  1   force =     0.00000000    0.00000000    0.00000000
     atom   14 type  1   force =     0.00000000    0.00000000    0.00000000
     atom   15 type  1   force =     0.00000000    0.00000000    0.00000000
     atom   16 type  1   force =     0.00000000    0.00000000    0.00000000
     atom   17 type  1   force =     0.00000000    0.00000000    0.00000000
     atom   18 type  1   force =     0.00000000    0.00000000    0.00000000
     atom   19 type  1   force =     0.00000000    0.00000000    0.00000000
     atom   20 type  1   force =     0.00000000    0.00000000    0.00000000
     atom   21 type  1   force =     0.00000000    0.00000000    0.00000000
     atom   22 type  1   force =     0.00000000    0.00000000    0.00000000
     atom   23 type  1   force =     0.00000000    0.00000000    0.00000000
     atom   24 type  1   force =     0.00000000    0.00000000    0.00000000
     atom   25 type  1   force =     0.00000000    0.00000000    0.00000000
     atom   26 type  1   force =     0.00000000    0.00000000    0.00000000
     atom   27 type  1   force =     0.00000000    0.00000000    0.00000000
     atom   28 type  1   force =     0.00000000    0.00000000    0.00000000
     atom   29 type  1   force =     0.00000000    0.00000000    0.00000000
     atom   30 type  1   force =     0.00000000    0.00000000    0.00000000
     atom   31 type  1   force =     0.00000000    0.00000000    0.00000000
     atom   32 type  1   force =     0.00000000    0.00000000    0.00000000
     atom   33 type  2   force =     0.00000000    0.00000000    0.00000000
     The SCF correction term to forces
     atom    1 type  1   force =    -0.00000255    0.00000000    0.00000497
     atom    2 type  1   force =    -0.00000824   -0.00000000    0.00000637
     atom    3 type  1   force =     0.00000969    0.00000000    0.00000144
     atom    4 type  1   force =    -0.00000133    0.00000000    0.00000439
     atom    5 type  1   force =    -0.00000962    0.00000000    0.00000296
     atom    6 type  1   force =     0.00000138   -0.00000000    0.00000955
     atom    7 type  1   force =     0.00000797   -0.00000000    0.00000621
     atom    8 type  1   force =     0.00000270    0.00000008    0.00000274
     atom    9 type  1   force =    -0.00000937    0.00000006    0.00000755
     atom   10 type  1   force =     0.00000704    0.00000004    0.00000589
     atom   11 type  1   force =    -0.00000721    0.00000009    0.00000165
     atom   12 type  1   force =    -0.00000685   -0.00000016    0.00000664
     atom   13 type  1   force =     0.00000714   -0.00000011    0.00000257
     atom   14 type  1   force =     0.00000931   -0.00000008    0.00000630
     atom   15 type  1   force =    -0.00000278   -0.00000010    0.00000169
     atom   16 type  1   force =     0.00000270   -0.00000008    0.00000274
     atom   17 type  1   force =    -0.00000937   -0.00000006    0.00000755
     atom   18 type  1   force =     0.00000704   -0.00000004    0.00000589
     atom   19 type  1   force =    -0.00000721   -0.00000009    0.00000165
     atom   20 type  1   force =    -0.00000685    0.00000016    0.00000664
     atom   21 type  1   force =     0.00000714    0.00000011    0.00000257
     atom   22 type  1   force =     0.00000931    0.00000008    0.00000630
     atom   23 type  1   force =    -0.00000278    0.00000010    0.00000169
     atom   24 type  1   force =    -0.00000958   -0.00000000    0.00000299
     atom   25 type  1   force =     0.00000140    0.00000000    0.00000954
     atom   26 type  1   force =     0.00000803    0.00000000    0.00000622
     atom   27 type  1   force =     0.00000261   -0.00000000   -0.00000077
     atom   28 type  1   force =    -0.00000815    0.00000000    0.00000639
     atom   29 type  1   force =    -0.00000255   -0.00000000    0.00000491
     atom   30 type  1   force =    -0.00000132   -0.00000000    0.00000448
     atom   31 type  1   force =     0.00000968   -0.00000000    0.00000151
     atom   32 type  1   force =     0.00000260    0.00000000   -0.00000081
     atom   33 type  2   force =     0.00000370    0.00000000   -0.00001009

     Total force =     0.027225     Total SCF correction =     0.000049

     Writing all to output data dir ./temp2/AlwithNa_0D004.save/

     init_run     :     20.68s CPU     14.36s WALL (       1 calls)
     electrons    :    649.12s CPU    405.99s WALL (       1 calls)
     forces       :     10.89s CPU      6.15s WALL (       1 calls)

     Called by init_run:
     wfcinit      :      9.67s CPU      6.36s WALL (       1 calls)
     potinit      :      4.33s CPU      2.32s WALL (       1 calls)
     hinit0       :      6.24s CPU      5.21s WALL (       1 calls)

     Called by electrons:
     c_bands      :    553.87s CPU    353.68s WALL (      32 calls)
     sum_band     :     87.54s CPU     45.57s WALL (      32 calls)
     v_of_rho     :      5.48s CPU      4.61s WALL (      33 calls)
     mix_rho      :      1.86s CPU      1.76s WALL (      32 calls)

     Called by c_bands:
     init_us_2    :     23.43s CPU     11.80s WALL (     396 calls)
     init_us_2:cp :     23.43s CPU     11.80s WALL (     396 calls)
     cegterg      :    475.30s CPU    300.91s WALL (     192 calls)

     Called by *egterg:
     cdiaghg      :      3.61s CPU      3.96s WALL (    1019 calls)
     h_psi        :    430.13s CPU    259.80s WALL (    1025 calls)
     g_psi        :      1.97s CPU      0.99s WALL (     827 calls)

     Called by h_psi:
     h_psi:calbec :     41.00s CPU     35.85s WALL (    1025 calls)
     vloc_psi     :    343.14s CPU    179.70s WALL (    1025 calls)
     add_vuspsi   :     42.18s CPU     42.30s WALL (    1025 calls)

     General routines
     calbec       :     42.36s CPU     37.09s WALL (    1049 calls)
     fft          :      2.75s CPU      2.92s WALL (     340 calls)
     ffts         :      0.15s CPU      0.18s WALL (      32 calls)
     fftw         :    305.88s CPU    161.68s WALL (   85298 calls)

     Parallel routines

     PWSCF        :  11m21.98s CPU   7m 9.28s WALL


   This run was terminated on:  21:17:26  20Mar2025            

=------------------------------------------------------------------------------=
   JOB DONE.
=------------------------------------------------------------------------------=
