
     Program PWSCF v.7.2 starts on 20Mar2025 at 21:16: 1 

     This program is part of the open-source Quantum ESPRESSO suite
     for quantum simulation of materials; please cite
         "P. Giannozzi et al., J. Phys.:Condens. Matter 21 395502 (2009);
         "P. Giannozzi et al., J. Phys.:Condens. Matter 29 465901 (2017);
         "P. Giannozzi et al., J. Chem. Phys. 152 154105 (2020);
          URL http://www.quantum-espresso.org", 
     in publications or presentations arising from this work. More details at
     http://www.quantum-espresso.org/quote

     Parallel version (MPI & OpenMP), running on     384 processor cores
     Number of MPI processes:               192
     Threads/MPI process:                     2

     MPI processes distributed on     8 nodes
     730556 MiB available memory on the printing compute node when the environment starts

     Reading input from Al111slabWithNa_0D001Ha.sc.in

     Current dimensions of program PWSCF are:
     Max number of different atomic species (ntypx) = 10
     Max number of k-points (npk) =  40000
     Max angular momentum in pseudopotentials (lmaxx) =  4

     K-points division:     npool     =      12
     R & G space division:  proc/nbgrp/npool/nimage =      16
     Subspace diagonalization in iterative solution of the eigenvalue problem:
     a serial algorithm will be used


     Parallelization info
     --------------------
     sticks:   dense  smooth     PW     G-vecs:    dense   smooth      PW
     Min         401     401    106                96479    96479   13202
     Max         402     402    107                96492    96492   13217
     Sum        6419    6419   1707              1543747  1543747  211325

     Using Slab Decomposition



     bravais-lattice index     =            0
     lattice parameter (alat)  =      18.6834  a.u.
     unit-cell volume          =   11425.3995 (a.u.)^3
     number of atoms/cell      =           33
     number of atomic types    =            2
     number of electrons       =       105.00
     number of Kohn-Sham states=           64
     kinetic-energy cutoff     =     100.0000  Ry
     charge density cutoff     =     400.0000  Ry
     scf convergence threshold =      1.0E-09
     mixing beta               =       0.7000
     number of iterations used =            8  plain     mixing
     Exchange-correlation= PBE
                           (   1   4   3   4   0   0   0)

     celldm(1)=  18.683402  celldm(2)=   0.000000  celldm(3)=   0.000000
     celldm(4)=   0.000000  celldm(5)=   0.000000  celldm(6)=   0.000000

     crystal axes: (cart. coord. in units of alat)
               a(1) = (   1.000000   0.000000   0.000000 )  
               a(2) = (   0.000000   0.577350   0.000000 )  
               a(3) = (   0.000000   0.000000   3.034340 )  

     reciprocal axes: (cart. coord. in units 2 pi/alat)
               b(1) = (  1.000000  0.000000  0.000000 )  
               b(2) = (  0.000000  1.732051  0.000000 )  
               b(3) = (  0.000000  0.000000  0.329561 )  


     PseudoPot. # 1 for Al read from file:
     ./Al.upf
     MD5 check sum: a92309766db89a6b54a5f8790cc4d69e
     Pseudo is Norm-conserving + core correction, Zval =  3.0
     Generated using ONCVPSP code by D. R. Hamann
     Using radial grid of 1876 points,  6 beta functions with: 
                l(1) =   0
                l(2) =   0
                l(3) =   1
                l(4) =   1
                l(5) =   2
                l(6) =   2

     PseudoPot. # 2 for Na read from file:
     ./Na.upf
     MD5 check sum: ed5af011864af3d1529ce3b51bbccf87
     Pseudo is Norm-conserving, Zval =  9.0
     Generated using ONCVPSP code by D. R. Hamann
     Using radial grid of 1992 points,  4 beta functions with: 
                l(1) =   0
                l(2) =   0
                l(3) =   1
                l(4) =   1

     atomic species   valence    mass     pseudopotential
        Al             3.00    26.00000     Al( 1.00)
        Na             9.00    23.00000     Na( 1.00)

     No symmetry found



   Cartesian axes

     site n.     atom                  positions (alat units)
         1           Al  tau(   1) = (   0.0000000   0.0000000   1.1636163  )
         2           Al  tau(   2) = (   0.3333333   0.0000000   1.6350208  )
         3           Al  tau(   3) = (   0.6666666   0.0000000   1.3993186  )
         4           Al  tau(   4) = (   0.0000000   0.0000000   1.8707232  )
         5           Al  tau(   5) = (   0.1666667   0.2886751   1.3993186  )
         6           Al  tau(   6) = (   0.5000000   0.2886751   1.8707232  )
         7           Al  tau(   7) = (   0.8333333   0.2886751   1.6350208  )
         8           Al  tau(   8) = (   0.9166667   0.4330127   1.3993186  )
         9           Al  tau(   9) = (   0.2500001   0.4330127   1.8707232  )
        10           Al  tau(  10) = (   0.5833333   0.4330127   1.6350208  )
        11           Al  tau(  11) = (   0.2500001   0.4330127   1.1636163  )
        12           Al  tau(  12) = (   0.0833334   0.1443376   1.6350208  )
        13           Al  tau(  13) = (   0.7500000   0.1443376   1.1636163  )
        14           Al  tau(  14) = (   0.7500000   0.1443376   1.8707232  )
        15           Al  tau(  15) = (   0.4166666   0.1443376   1.3993186  )
        16           Al  tau(  16) = (   0.9166667   0.1443376   1.3993186  )
        17           Al  tau(  17) = (   0.2500001   0.1443376   1.8707232  )
        18           Al  tau(  18) = (   0.5833333   0.1443376   1.6350208  )
        19           Al  tau(  19) = (   0.2500001   0.1443376   1.1636163  )
        20           Al  tau(  20) = (   0.0833334   0.4330127   1.6350208  )
        21           Al  tau(  21) = (   0.7500000   0.4330127   1.1636163  )
        22           Al  tau(  22) = (   0.7500000   0.4330127   1.8707232  )
        23           Al  tau(  23) = (   0.4166666   0.4330127   1.3993186  )
        24           Al  tau(  24) = (   0.1666667   0.0000000   1.3993186  )
        25           Al  tau(  25) = (   0.5000000   0.0000000   1.8707232  )
        26           Al  tau(  26) = (   0.8333333   0.0000000   1.6350208  )
        27           Al  tau(  27) = (   0.5000000   0.0000000   1.1636163  )
        28           Al  tau(  28) = (   0.3333333   0.2886751   1.6350208  )
        29           Al  tau(  29) = (   0.0000000   0.2886751   1.1636163  )
        30           Al  tau(  30) = (   0.0000000   0.2886751   1.8707232  )
        31           Al  tau(  31) = (   0.6666666   0.2886751   1.3993186  )
        32           Al  tau(  32) = (   0.5000000   0.2886751   1.1636163  )
        33           Na  tau(  33) = (   0.5000000   0.2886751   0.8799585  )

     number of k points=    72  Fermi-Dirac smearing, width (Ry)=  0.0032
                       cart. coord. in units 2pi/alat
        k(    1) = (   0.0416667   0.0721688   0.0000000), wk =   0.0277778
        k(    2) = (   0.0416667   0.2165063   0.0000000), wk =   0.0277778
        k(    3) = (   0.0416667   0.3608439   0.0000000), wk =   0.0277778
        k(    4) = (   0.0416667   0.5051815   0.0000000), wk =   0.0277778
        k(    5) = (   0.0416667   0.6495190   0.0000000), wk =   0.0277778
        k(    6) = (   0.0416667   0.7938566   0.0000000), wk =   0.0277778
        k(    7) = (   0.0416667  -0.7938566   0.0000000), wk =   0.0277778
        k(    8) = (   0.0416667  -0.6495190   0.0000000), wk =   0.0277778
        k(    9) = (   0.0416667  -0.5051815   0.0000000), wk =   0.0277778
        k(   10) = (   0.0416667  -0.3608439   0.0000000), wk =   0.0277778
        k(   11) = (   0.0416667  -0.2165063   0.0000000), wk =   0.0277778
        k(   12) = (   0.0416667  -0.0721688   0.0000000), wk =   0.0277778
        k(   13) = (   0.1250000   0.0721688   0.0000000), wk =   0.0277778
        k(   14) = (   0.1250000   0.2165063   0.0000000), wk =   0.0277778
        k(   15) = (   0.1250000   0.3608439   0.0000000), wk =   0.0277778
        k(   16) = (   0.1250000   0.5051815   0.0000000), wk =   0.0277778
        k(   17) = (   0.1250000   0.6495190   0.0000000), wk =   0.0277778
        k(   18) = (   0.1250000   0.7938566   0.0000000), wk =   0.0277778
        k(   19) = (   0.1250000  -0.7938566   0.0000000), wk =   0.0277778
        k(   20) = (   0.1250000  -0.6495190   0.0000000), wk =   0.0277778
        k(   21) = (   0.1250000  -0.5051815   0.0000000), wk =   0.0277778
        k(   22) = (   0.1250000  -0.3608439   0.0000000), wk =   0.0277778
        k(   23) = (   0.1250000  -0.2165063   0.0000000), wk =   0.0277778
        k(   24) = (   0.1250000  -0.0721688   0.0000000), wk =   0.0277778
        k(   25) = (   0.2083333   0.0721688   0.0000000), wk =   0.0277778
        k(   26) = (   0.2083333   0.2165063   0.0000000), wk =   0.0277778
        k(   27) = (   0.2083333   0.3608439   0.0000000), wk =   0.0277778
        k(   28) = (   0.2083333   0.5051815   0.0000000), wk =   0.0277778
        k(   29) = (   0.2083333   0.6495190   0.0000000), wk =   0.0277778
        k(   30) = (   0.2083333   0.7938566   0.0000000), wk =   0.0277778
        k(   31) = (   0.2083333  -0.7938566   0.0000000), wk =   0.0277778
        k(   32) = (   0.2083333  -0.6495190   0.0000000), wk =   0.0277778
        k(   33) = (   0.2083333  -0.5051815   0.0000000), wk =   0.0277778
        k(   34) = (   0.2083333  -0.3608439   0.0000000), wk =   0.0277778
        k(   35) = (   0.2083333  -0.2165063   0.0000000), wk =   0.0277778
        k(   36) = (   0.2083333  -0.0721688   0.0000000), wk =   0.0277778
        k(   37) = (   0.2916667   0.0721688   0.0000000), wk =   0.0277778
        k(   38) = (   0.2916667   0.2165063   0.0000000), wk =   0.0277778
        k(   39) = (   0.2916667   0.3608439   0.0000000), wk =   0.0277778
        k(   40) = (   0.2916667   0.5051815   0.0000000), wk =   0.0277778
        k(   41) = (   0.2916667   0.6495190   0.0000000), wk =   0.0277778
        k(   42) = (   0.2916667   0.7938566   0.0000000), wk =   0.0277778
        k(   43) = (   0.2916667  -0.7938566   0.0000000), wk =   0.0277778
        k(   44) = (   0.2916667  -0.6495190   0.0000000), wk =   0.0277778
        k(   45) = (   0.2916667  -0.5051815   0.0000000), wk =   0.0277778
        k(   46) = (   0.2916667  -0.3608439   0.0000000), wk =   0.0277778
        k(   47) = (   0.2916667  -0.2165063   0.0000000), wk =   0.0277778
        k(   48) = (   0.2916667  -0.0721688   0.0000000), wk =   0.0277778
        k(   49) = (   0.3750000   0.0721688   0.0000000), wk =   0.0277778
        k(   50) = (   0.3750000   0.2165063   0.0000000), wk =   0.0277778
        k(   51) = (   0.3750000   0.3608439   0.0000000), wk =   0.0277778
        k(   52) = (   0.3750000   0.5051815   0.0000000), wk =   0.0277778
        k(   53) = (   0.3750000   0.6495190   0.0000000), wk =   0.0277778
        k(   54) = (   0.3750000   0.7938566   0.0000000), wk =   0.0277778
        k(   55) = (   0.3750000  -0.7938566   0.0000000), wk =   0.0277778
        k(   56) = (   0.3750000  -0.6495190   0.0000000), wk =   0.0277778
        k(   57) = (   0.3750000  -0.5051815   0.0000000), wk =   0.0277778
        k(   58) = (   0.3750000  -0.3608439   0.0000000), wk =   0.0277778
        k(   59) = (   0.3750000  -0.2165063   0.0000000), wk =   0.0277778
        k(   60) = (   0.3750000  -0.0721688   0.0000000), wk =   0.0277778
        k(   61) = (   0.4583333   0.0721688   0.0000000), wk =   0.0277778
        k(   62) = (   0.4583333   0.2165063   0.0000000), wk =   0.0277778
        k(   63) = (   0.4583333   0.3608439   0.0000000), wk =   0.0277778
        k(   64) = (   0.4583333   0.5051815   0.0000000), wk =   0.0277778
        k(   65) = (   0.4583333   0.6495190   0.0000000), wk =   0.0277778
        k(   66) = (   0.4583333   0.7938566   0.0000000), wk =   0.0277778
        k(   67) = (   0.4583333  -0.7938566   0.0000000), wk =   0.0277778
        k(   68) = (   0.4583333  -0.6495190   0.0000000), wk =   0.0277778
        k(   69) = (   0.4583333  -0.5051815   0.0000000), wk =   0.0277778
        k(   70) = (   0.4583333  -0.3608439   0.0000000), wk =   0.0277778
        k(   71) = (   0.4583333  -0.2165063   0.0000000), wk =   0.0277778
        k(   72) = (   0.4583333  -0.0721688   0.0000000), wk =   0.0277778

     Dense  grid:  1543747 G-vectors     FFT dimensions: ( 120,  72, 375)

     Estimated max dynamical RAM per process >     299.74 MB

     Estimated total dynamical RAM >      52.15 GB

     Initial potential from superposition of free atoms

     starting charge     104.9155, renormalised to     105.0000

     negative rho (up, down):  4.627E-05 0.000E+00

     Adding external electric field

     Computed dipole along edir(3) : 
        Dipole                0.0117 Ry au,          0.0297 Debye
        Dipole field          0.0000 Ry au, 

        E field amplitude [Ha a.u.]:  1.0000E-03
        Potential amp.        0.0895 Ry
        Total length         45.3534 bohr

     Starting wfcs are  133 atomic wfcs

     total cpu time spent up to now is       13.3 secs

     Self-consistent Calculation

     iteration #  1     ecut=   100.00 Ry     beta= 0.70
     Davidson diagonalization with overlap
     ethr =  1.00E-02,  avg # of iterations =  3.1

     negative rho (up, down):  8.537E-06 0.000E+00

     Adding external electric field

     Computed dipole along edir(3) : 
        Dipole                2.5286 Ry au,          6.4271 Debye
        Dipole field          0.0028 Ry au, 

        E field amplitude [Ha a.u.]:  1.0000E-03
        Potential amp.       -0.1616 Ry
        Total length         45.3534 bohr


     total cpu time spent up to now is       25.9 secs

     total energy              =    -237.61086770 Ry
     estimated scf accuracy    <       2.46320702 Ry

     iteration #  2     ecut=   100.00 Ry     beta= 0.70
     Davidson diagonalization with overlap
     ethr =  2.35E-03,  avg # of iterations = 18.5

     Adding external electric field

     Computed dipole along edir(3) : 
        Dipole               -9.9812 Ry au,        -25.3697 Debye
        Dipole field         -0.0110 Ry au, 

        E field amplitude [Ha a.u.]:  1.0000E-03
        Potential amp.        1.0865 Ry
        Total length         45.3534 bohr


     total cpu time spent up to now is       57.8 secs

     total energy              =    -215.79103205 Ry
     estimated scf accuracy    <     681.01614126 Ry

     iteration #  3     ecut=   100.00 Ry     beta= 0.70
     Davidson diagonalization with overlap
     ethr =  2.35E-03,  avg # of iterations = 14.7

     Adding external electric field

     Computed dipole along edir(3) : 
        Dipole               -1.6515 Ry au,         -4.1977 Debye
        Dipole field         -0.0018 Ry au, 

        E field amplitude [Ha a.u.]:  1.0000E-03
        Potential amp.        0.2555 Ry
        Total length         45.3534 bohr


     total cpu time spent up to now is       90.6 secs

     total energy              =    -220.39131179 Ry
     estimated scf accuracy    <     955.84094825 Ry

     iteration #  4     ecut=   100.00 Ry     beta= 0.70
     Davidson diagonalization with overlap
     ethr =  2.35E-03,  avg # of iterations = 11.2

     Adding external electric field

     Computed dipole along edir(3) : 
        Dipole               -0.2520 Ry au,         -0.6405 Debye
        Dipole field         -0.0003 Ry au, 

        E field amplitude [Ha a.u.]:  1.0000E-03
        Potential amp.        0.1158 Ry
        Total length         45.3534 bohr


     total cpu time spent up to now is      113.0 secs

     total energy              =    -239.29880906 Ry
     estimated scf accuracy    <       0.97063719 Ry

     iteration #  5     ecut=   100.00 Ry     beta= 0.70
     Davidson diagonalization with overlap
     ethr =  9.24E-04,  avg # of iterations =  2.6

     Adding external electric field

     Computed dipole along edir(3) : 
        Dipole               -0.9841 Ry au,         -2.5013 Debye
        Dipole field         -0.0011 Ry au, 

        E field amplitude [Ha a.u.]:  1.0000E-03
        Potential amp.        0.1889 Ry
        Total length         45.3534 bohr


     total cpu time spent up to now is      123.6 secs

     total energy              =    -239.34870601 Ry
     estimated scf accuracy    <       1.18542295 Ry

     iteration #  6     ecut=   100.00 Ry     beta= 0.70
     Davidson diagonalization with overlap
     ethr =  9.24E-04,  avg # of iterations =  2.1

     Adding external electric field

     Computed dipole along edir(3) : 
        Dipole               -0.5798 Ry au,         -1.4736 Debye
        Dipole field         -0.0006 Ry au, 

        E field amplitude [Ha a.u.]:  1.0000E-03
        Potential amp.        0.1485 Ry
        Total length         45.3534 bohr


     total cpu time spent up to now is      133.3 secs

     total energy              =    -239.35727287 Ry
     estimated scf accuracy    <       1.28814253 Ry

     iteration #  7     ecut=   100.00 Ry     beta= 0.70
     Davidson diagonalization with overlap
     ethr =  9.24E-04,  avg # of iterations =  1.0

     Adding external electric field

     Computed dipole along edir(3) : 
        Dipole               -0.7782 Ry au,         -1.9781 Debye
        Dipole field         -0.0009 Ry au, 

        E field amplitude [Ha a.u.]:  1.0000E-03
        Potential amp.        0.1683 Ry
        Total length         45.3534 bohr


     total cpu time spent up to now is      141.8 secs

     total energy              =    -239.37158058 Ry
     estimated scf accuracy    <       0.33380107 Ry

     iteration #  8     ecut=   100.00 Ry     beta= 0.70
     Davidson diagonalization with overlap
     ethr =  3.18E-04,  avg # of iterations =  1.3

     Adding external electric field

     Computed dipole along edir(3) : 
        Dipole               -0.7926 Ry au,         -2.0147 Debye
        Dipole field         -0.0009 Ry au, 

        E field amplitude [Ha a.u.]:  1.0000E-03
        Potential amp.        0.1698 Ry
        Total length         45.3534 bohr


     total cpu time spent up to now is      150.6 secs

     total energy              =    -239.36890252 Ry
     estimated scf accuracy    <       0.20438077 Ry

     iteration #  9     ecut=   100.00 Ry     beta= 0.70
     Davidson diagonalization with overlap
     ethr =  1.95E-04,  avg # of iterations =  1.5

     Adding external electric field

     Computed dipole along edir(3) : 
        Dipole               -0.7080 Ry au,         -1.7995 Debye
        Dipole field         -0.0008 Ry au, 

        E field amplitude [Ha a.u.]:  1.0000E-03
        Potential amp.        0.1613 Ry
        Total length         45.3534 bohr


     total cpu time spent up to now is      160.3 secs

     total energy              =    -239.35644892 Ry
     estimated scf accuracy    <       0.18164732 Ry

     iteration # 10     ecut=   100.00 Ry     beta= 0.70
     Davidson diagonalization with overlap
     ethr =  1.73E-04,  avg # of iterations =  1.2

     Adding external electric field

     Computed dipole along edir(3) : 
        Dipole               -0.7277 Ry au,         -1.8497 Debye
        Dipole field         -0.0008 Ry au, 

        E field amplitude [Ha a.u.]:  1.0000E-03
        Potential amp.        0.1633 Ry
        Total length         45.3534 bohr


     total cpu time spent up to now is      169.0 secs

     total energy              =    -239.35637040 Ry
     estimated scf accuracy    <       0.13195208 Ry

     iteration # 11     ecut=   100.00 Ry     beta= 0.70
     Davidson diagonalization with overlap
     ethr =  1.26E-04,  avg # of iterations =  1.4

     Adding external electric field

     Computed dipole along edir(3) : 
        Dipole               -0.6367 Ry au,         -1.6184 Debye
        Dipole field         -0.0007 Ry au, 

        E field amplitude [Ha a.u.]:  1.0000E-03
        Potential amp.        0.1542 Ry
        Total length         45.3534 bohr


     total cpu time spent up to now is      178.4 secs

     total energy              =    -239.30752290 Ry
     estimated scf accuracy    <       0.12114878 Ry

     iteration # 12     ecut=   100.00 Ry     beta= 0.70
     Davidson diagonalization with overlap
     ethr =  1.15E-04,  avg # of iterations =  8.9

     Adding external electric field

     Computed dipole along edir(3) : 
        Dipole               -0.7074 Ry au,         -1.7981 Debye
        Dipole field         -0.0008 Ry au, 

        E field amplitude [Ha a.u.]:  1.0000E-03
        Potential amp.        0.1613 Ry
        Total length         45.3534 bohr


     total cpu time spent up to now is      191.9 secs

     total energy              =    -239.31756447 Ry
     estimated scf accuracy    <       0.04779794 Ry

     iteration # 13     ecut=   100.00 Ry     beta= 0.70
     Davidson diagonalization with overlap
     ethr =  4.55E-05,  avg # of iterations =  3.6

     Adding external electric field

     Computed dipole along edir(3) : 
        Dipole               -0.7156 Ry au,         -1.8189 Debye
        Dipole field         -0.0008 Ry au, 

        E field amplitude [Ha a.u.]:  1.0000E-03
        Potential amp.        0.1621 Ry
        Total length         45.3534 bohr


     total cpu time spent up to now is      205.0 secs

     total energy              =    -239.31519678 Ry
     estimated scf accuracy    <       0.02505658 Ry

     iteration # 14     ecut=   100.00 Ry     beta= 0.70
     Davidson diagonalization with overlap
     ethr =  2.39E-05,  avg # of iterations =  5.5

     Adding external electric field

     Computed dipole along edir(3) : 
        Dipole               -0.7012 Ry au,         -1.7824 Debye
        Dipole field         -0.0008 Ry au, 

        E field amplitude [Ha a.u.]:  1.0000E-03
        Potential amp.        0.1607 Ry
        Total length         45.3534 bohr


     total cpu time spent up to now is      219.2 secs

     total energy              =    -239.31667503 Ry
     estimated scf accuracy    <       0.00627103 Ry

     iteration # 15     ecut=   100.00 Ry     beta= 0.70
     Davidson diagonalization with overlap
     c_bands:  1 eigenvalues not converged
     ethr =  5.97E-06,  avg # of iterations =  7.7

     Adding external electric field

     Computed dipole along edir(3) : 
        Dipole               -0.6173 Ry au,         -1.5691 Debye
        Dipole field         -0.0007 Ry au, 

        E field amplitude [Ha a.u.]:  1.0000E-03
        Potential amp.        0.1523 Ry
        Total length         45.3534 bohr


     total cpu time spent up to now is      235.3 secs

     total energy              =    -239.31625323 Ry
     estimated scf accuracy    <       0.00497022 Ry

     iteration # 16     ecut=   100.00 Ry     beta= 0.70
     Davidson diagonalization with overlap
     ethr =  4.73E-06,  avg # of iterations =  4.3

     Adding external electric field

     Computed dipole along edir(3) : 
        Dipole               -0.6508 Ry au,         -1.6542 Debye
        Dipole field         -0.0007 Ry au, 

        E field amplitude [Ha a.u.]:  1.0000E-03
        Potential amp.        0.1556 Ry
        Total length         45.3534 bohr


     total cpu time spent up to now is      247.3 secs

     total energy              =    -239.31664948 Ry
     estimated scf accuracy    <       0.00402637 Ry

     iteration # 17     ecut=   100.00 Ry     beta= 0.70
     Davidson diagonalization with overlap
     ethr =  3.83E-06,  avg # of iterations =  2.0

     Adding external electric field

     Computed dipole along edir(3) : 
        Dipole               -0.6411 Ry au,         -1.6295 Debye
        Dipole field         -0.0007 Ry au, 

        E field amplitude [Ha a.u.]:  1.0000E-03
        Potential amp.        0.1547 Ry
        Total length         45.3534 bohr


     total cpu time spent up to now is      256.5 secs

     total energy              =    -239.31708205 Ry
     estimated scf accuracy    <       0.00040065 Ry

     iteration # 18     ecut=   100.00 Ry     beta= 0.70
     Davidson diagonalization with overlap
     ethr =  3.82E-07,  avg # of iterations =  2.7

     Adding external electric field

     Computed dipole along edir(3) : 
        Dipole               -0.6566 Ry au,         -1.6690 Debye
        Dipole field         -0.0007 Ry au, 

        E field amplitude [Ha a.u.]:  1.0000E-03
        Potential amp.        0.1562 Ry
        Total length         45.3534 bohr


     total cpu time spent up to now is      267.7 secs

     total energy              =    -239.31713141 Ry
     estimated scf accuracy    <       0.00028179 Ry

     iteration # 19     ecut=   100.00 Ry     beta= 0.70
     Davidson diagonalization with overlap
     ethr =  2.68E-07,  avg # of iterations =  2.1

     negative rho (up, down):  1.560E-05 0.000E+00

     Adding external electric field

     Computed dipole along edir(3) : 
        Dipole               -0.6469 Ry au,         -1.6442 Debye
        Dipole field         -0.0007 Ry au, 

        E field amplitude [Ha a.u.]:  1.0000E-03
        Potential amp.        0.1552 Ry
        Total length         45.3534 bohr


     total cpu time spent up to now is      277.2 secs

     total energy              =    -239.31712441 Ry
     estimated scf accuracy    <       0.00031802 Ry

     iteration # 20     ecut=   100.00 Ry     beta= 0.70
     Davidson diagonalization with overlap
     ethr =  2.68E-07,  avg # of iterations =  1.3

     Adding external electric field

     Computed dipole along edir(3) : 
        Dipole               -0.6489 Ry au,         -1.6492 Debye
        Dipole field         -0.0007 Ry au, 

        E field amplitude [Ha a.u.]:  1.0000E-03
        Potential amp.        0.1554 Ry
        Total length         45.3534 bohr


     total cpu time spent up to now is      286.1 secs

     total energy              =    -239.31713805 Ry
     estimated scf accuracy    <       0.00001718 Ry

     iteration # 21     ecut=   100.00 Ry     beta= 0.70
     Davidson diagonalization with overlap
     ethr =  1.64E-08,  avg # of iterations =  4.4

     Adding external electric field

     Computed dipole along edir(3) : 
        Dipole               -0.6490 Ry au,         -1.6495 Debye
        Dipole field         -0.0007 Ry au, 

        E field amplitude [Ha a.u.]:  1.0000E-03
        Potential amp.        0.1555 Ry
        Total length         45.3534 bohr


     total cpu time spent up to now is      298.1 secs

     total energy              =    -239.31714216 Ry
     estimated scf accuracy    <       0.00000406 Ry

     iteration # 22     ecut=   100.00 Ry     beta= 0.70
     Davidson diagonalization with overlap
     ethr =  3.87E-09,  avg # of iterations =  3.9

     Adding external electric field

     Computed dipole along edir(3) : 
        Dipole               -0.6495 Ry au,         -1.6509 Debye
        Dipole field         -0.0007 Ry au, 

        E field amplitude [Ha a.u.]:  1.0000E-03
        Potential amp.        0.1555 Ry
        Total length         45.3534 bohr


     total cpu time spent up to now is      309.9 secs

     total energy              =    -239.31714282 Ry
     estimated scf accuracy    <       0.00000360 Ry

     iteration # 23     ecut=   100.00 Ry     beta= 0.70
     Davidson diagonalization with overlap
     ethr =  3.43E-09,  avg # of iterations =  2.1

     Adding external electric field

     Computed dipole along edir(3) : 
        Dipole               -0.6484 Ry au,         -1.6482 Debye
        Dipole field         -0.0007 Ry au, 

        E field amplitude [Ha a.u.]:  1.0000E-03
        Potential amp.        0.1554 Ry
        Total length         45.3534 bohr


     total cpu time spent up to now is      319.9 secs

     total energy              =    -239.31714320 Ry
     estimated scf accuracy    <       0.00000253 Ry

     iteration # 24     ecut=   100.00 Ry     beta= 0.70
     Davidson diagonalization with overlap
     ethr =  2.41E-09,  avg # of iterations =  2.3

     Adding external electric field

     Computed dipole along edir(3) : 
        Dipole               -0.6484 Ry au,         -1.6481 Debye
        Dipole field         -0.0007 Ry au, 

        E field amplitude [Ha a.u.]:  1.0000E-03
        Potential amp.        0.1554 Ry
        Total length         45.3534 bohr


     total cpu time spent up to now is      330.1 secs

     total energy              =    -239.31714319 Ry
     estimated scf accuracy    <       0.00000271 Ry

     iteration # 25     ecut=   100.00 Ry     beta= 0.70
     Davidson diagonalization with overlap
     ethr =  2.41E-09,  avg # of iterations =  2.0

     Adding external electric field

     Computed dipole along edir(3) : 
        Dipole               -0.6483 Ry au,         -1.6478 Debye
        Dipole field         -0.0007 Ry au, 

        E field amplitude [Ha a.u.]:  1.0000E-03
        Potential amp.        0.1554 Ry
        Total length         45.3534 bohr


     total cpu time spent up to now is      339.5 secs

     total energy              =    -239.31714354 Ry
     estimated scf accuracy    <       0.00000070 Ry

     iteration # 26     ecut=   100.00 Ry     beta= 0.70
     Davidson diagonalization with overlap
     ethr =  6.66E-10,  avg # of iterations =  2.1

     Adding external electric field

     Computed dipole along edir(3) : 
        Dipole               -0.6483 Ry au,         -1.6479 Debye
        Dipole field         -0.0007 Ry au, 

        E field amplitude [Ha a.u.]:  1.0000E-03
        Potential amp.        0.1554 Ry
        Total length         45.3534 bohr


     total cpu time spent up to now is      349.0 secs

     total energy              =    -239.31714357 Ry
     estimated scf accuracy    <       0.00000016 Ry

     iteration # 27     ecut=   100.00 Ry     beta= 0.70
     Davidson diagonalization with overlap
     ethr =  1.57E-10,  avg # of iterations =  4.1

     Adding external electric field

     Computed dipole along edir(3) : 
        Dipole               -0.6480 Ry au,         -1.6471 Debye
        Dipole field         -0.0007 Ry au, 

        E field amplitude [Ha a.u.]:  1.0000E-03
        Potential amp.        0.1554 Ry
        Total length         45.3534 bohr


     total cpu time spent up to now is      360.2 secs

     total energy              =    -239.31714359 Ry
     estimated scf accuracy    <       0.00000012 Ry

     iteration # 28     ecut=   100.00 Ry     beta= 0.70
     Davidson diagonalization with overlap
     ethr =  1.16E-10,  avg # of iterations =  4.0

     Adding external electric field

     Computed dipole along edir(3) : 
        Dipole               -0.6486 Ry au,         -1.6485 Debye
        Dipole field         -0.0007 Ry au, 

        E field amplitude [Ha a.u.]:  1.0000E-03
        Potential amp.        0.1554 Ry
        Total length         45.3534 bohr


     total cpu time spent up to now is      371.9 secs

     total energy              =    -239.31714356 Ry
     estimated scf accuracy    <       0.00000163 Ry

     iteration # 29     ecut=   100.00 Ry     beta= 0.70
     Davidson diagonalization with overlap
     ethr =  1.16E-10,  avg # of iterations =  3.1

     Adding external electric field

     Computed dipole along edir(3) : 
        Dipole               -0.6484 Ry au,         -1.6480 Debye
        Dipole field         -0.0007 Ry au, 

        E field amplitude [Ha a.u.]:  1.0000E-03
        Potential amp.        0.1554 Ry
        Total length         45.3534 bohr


     total cpu time spent up to now is      382.2 secs

     total energy              =    -239.31714361 Ry
     estimated scf accuracy    <       0.00000008 Ry

     iteration # 30     ecut=   100.00 Ry     beta= 0.70
     Davidson diagonalization with overlap
     ethr =  7.36E-11,  avg # of iterations =  2.0

     Adding external electric field

     Computed dipole along edir(3) : 
        Dipole               -0.6484 Ry au,         -1.6480 Debye
        Dipole field         -0.0007 Ry au, 

        E field amplitude [Ha a.u.]:  1.0000E-03
        Potential amp.        0.1554 Ry
        Total length         45.3534 bohr


     total cpu time spent up to now is      391.5 secs

     total energy              =    -239.31714362 Ry
     estimated scf accuracy    <       0.00000002 Ry

     iteration # 31     ecut=   100.00 Ry     beta= 0.70
     Davidson diagonalization with overlap
     ethr =  2.36E-11,  avg # of iterations =  2.5

     Adding external electric field

     Computed dipole along edir(3) : 
        Dipole               -0.6484 Ry au,         -1.6482 Debye
        Dipole field         -0.0007 Ry au, 

        E field amplitude [Ha a.u.]:  1.0000E-03
        Potential amp.        0.1554 Ry
        Total length         45.3534 bohr


     total cpu time spent up to now is      401.7 secs

     total energy              =    -239.31714362 Ry
     estimated scf accuracy    <       0.00000001 Ry

     iteration # 32     ecut=   100.00 Ry     beta= 0.70
     Davidson diagonalization with overlap
     ethr =  9.70E-12,  avg # of iterations =  2.1

     Adding external electric field

     Computed dipole along edir(3) : 
        Dipole               -0.6484 Ry au,         -1.6481 Debye
        Dipole field         -0.0007 Ry au, 

        E field amplitude [Ha a.u.]:  1.0000E-03
        Potential amp.        0.1554 Ry
        Total length         45.3534 bohr


     total cpu time spent up to now is      411.1 secs

     total energy              =    -239.31714362 Ry
     estimated scf accuracy    <          2.2E-09 Ry

     iteration # 33     ecut=   100.00 Ry     beta= 0.70
     Davidson diagonalization with overlap
     ethr =  2.13E-12,  avg # of iterations =  4.2

     Adding external electric field

     Computed dipole along edir(3) : 
        Dipole               -0.6484 Ry au,         -1.6481 Debye
        Dipole field         -0.0007 Ry au, 

        E field amplitude [Ha a.u.]:  1.0000E-03
        Potential amp.        0.1554 Ry
        Total length         45.3534 bohr


     total cpu time spent up to now is      422.3 secs

     total energy              =    -239.31714363 Ry
     estimated scf accuracy    <          3.1E-09 Ry

     iteration # 34     ecut=   100.00 Ry     beta= 0.70
     Davidson diagonalization with overlap
     ethr =  2.13E-12,  avg # of iterations =  1.9

     Adding external electric field

     Computed dipole along edir(3) : 
        Dipole               -0.6482 Ry au,         -1.6475 Debye
        Dipole field         -0.0007 Ry au, 

        E field amplitude [Ha a.u.]:  1.0000E-03
        Potential amp.        0.1554 Ry
        Total length         45.3534 bohr


     total cpu time spent up to now is      431.2 secs

     End of self-consistent calculation

          k = 0.0417 0.0722 0.0000 (192948 PWs)   bands (ev):

   -53.6283 -25.5615 -25.5441 -25.5420 -10.4876  -9.4600  -9.1090  -8.8598
    -8.0891  -7.8426  -7.8093  -6.4511  -6.3916  -6.2053  -5.6601  -5.6068
    -5.3886  -5.0553  -4.8151  -4.8149  -4.6635  -4.3322  -4.3321  -4.2562
    -4.1082  -4.0552  -4.0123  -3.8348  -3.8341  -3.7826  -3.3762  -3.3755
    -3.1859  -3.1640  -3.0744  -2.4473  -2.2947  -2.2891  -1.8908  -1.6950
    -1.6498  -1.5469  -1.5399  -1.3758  -1.2035  -0.7904  -0.4833  -0.3562
    -0.2167  -0.1634   0.0413   0.0558   0.2187   0.2436   0.5339   0.5394
     0.6264   0.6668   0.7650   0.7709   0.9636   1.0035   1.1783   1.3467

          k = 0.0417 0.2165 0.0000 (192942 PWs)   bands (ev):

   -53.6283 -25.5615 -25.5441 -25.5420 -10.4247  -9.3973  -9.0467  -8.7976
    -8.0271  -7.7807  -7.7471  -7.0660  -6.3897  -6.1441  -6.0582  -5.7214
    -5.5448  -5.4784  -4.8722  -4.7547  -4.7265  -4.4878  -4.4411  -4.2720
    -4.1948  -3.9516  -3.8839  -3.7743  -3.5607  -3.3380  -3.3163  -3.1611
    -3.1212  -2.9894  -2.4790  -2.3374  -2.3091  -2.2916  -2.2335  -1.8290
    -1.5950  -1.5620  -1.4824  -1.1193  -0.9457  -0.9056  -0.7039  -0.5322
    -0.4984  -0.4098  -0.2371  -0.0532   0.1025   0.3201   0.5899   0.6620
     0.7035   1.0167   1.0980   1.1596   1.2324   1.2726   1.3902   1.5200

          k = 0.0417 0.3608 0.0000 (192862 PWs)   bands (ev):

   -53.6283 -25.5615 -25.5441 -25.5421 -10.2989  -9.2722  -8.9221  -8.6732
    -7.9032  -7.6821  -7.6569  -7.6229  -6.6702  -6.3308  -6.2667  -6.0866
    -6.0214  -5.4214  -5.3290  -5.0882  -5.0445  -4.6340  -4.1518  -4.0739
    -4.0302  -3.8306  -3.7338  -3.6547  -3.5027  -3.1975  -3.0575  -3.0065
    -2.8697  -2.7410  -2.5272  -2.1397  -2.1171  -1.8411  -1.7661  -1.7120
    -1.6911  -1.6113  -1.4784  -1.3640  -1.1238  -1.0973  -1.0631  -0.6614
    -0.5581  -0.2935  -0.0297   0.1892   0.2087   0.2552   0.6884   0.7716
     0.8539   1.0470   1.1361   1.1495   1.3268   1.3372   1.3553   1.7532

          k = 0.0417 0.5052 0.0000 (192883 PWs)   bands (ev):

   -53.6283 -25.5615 -25.5441 -25.5421 -10.1104  -9.0847  -8.7354  -8.4868
    -8.2387  -7.7175  -7.4716  -7.4369  -7.2234  -6.8818  -6.6366  -6.0829
    -5.8759  -5.8380  -5.6334  -5.5920  -5.2349  -4.4533  -4.2651  -4.0268
    -3.9717  -3.8913  -3.6493  -3.4760  -3.4073  -3.1388  -3.0197  -2.8264
    -2.6634  -2.2205  -2.2086  -2.1561  -2.1009  -1.9430  -1.7451  -1.6324
    -1.5384  -1.4991  -1.3185  -1.3007  -1.1876  -1.0626  -0.6925  -0.5672
    -0.4977  -0.1421  -0.1207   0.3063   0.3560   0.5197   0.8073   0.8438
     0.8477   0.9663   1.0675   1.2864   1.4751   1.5312   1.8822   2.1545

          k = 0.0417 0.6495 0.0000 (192942 PWs)   bands (ev):

   -53.6283 -25.5615 -25.5441 -25.5421  -9.8594  -8.8351  -8.7354  -8.4868
    -8.2387  -7.7174  -7.4704  -7.3736  -7.2249  -7.1892  -7.1274  -6.3642
    -6.1208  -6.0811  -5.8378  -5.5935  -4.9890  -4.7444  -4.5035  -4.2128
    -3.8903  -3.7322  -3.6493  -3.4086  -3.2382  -3.1388  -2.7835  -2.6634
    -2.6109  -2.5762  -2.3711  -2.2203  -2.1559  -1.7453  -1.7132  -1.5332
    -1.3182  -1.2976  -1.0690  -0.9568  -0.8789  -0.7065  -0.5669  -0.1558
    -0.1353  -0.0208   0.1188   0.3017   0.4474   0.4627   0.7424   0.8443
     1.0652   1.2624   1.4274   1.4863   1.6524   1.7454   1.8788   1.9761

          k = 0.0417 0.7939 0.0000 (192966 PWs)   bands (ev):

   -53.6283 -25.5615 -25.5441 -25.5421  -9.5463  -9.1715  -8.5237  -8.1767
    -8.1509  -7.9291  -7.8055  -7.5585  -7.1621  -6.9172  -6.8805  -6.7930
    -6.5488  -6.5106  -5.5329  -5.2894  -5.1679  -4.9255  -4.6816  -4.3140
    -3.9130  -3.5545  -3.4335  -3.3513  -3.1125  -3.0763  -2.9958  -2.9421
    -2.7606  -2.5907  -2.4896  -2.2956  -2.1409  -1.9383  -1.4329  -1.2207
    -1.1213  -1.0161  -0.7895  -0.6892  -0.6824  -0.4885  -0.3788  -0.1999
    -0.1926   0.2115   0.3665   0.4170   0.4774   0.7716   1.1113   1.1719
     1.2221   1.3474   1.3732   1.3987   1.5434   1.6665   1.7254   1.9445

          k = 0.0417-0.7939 0.0000 (192966 PWs)   bands (ev):

   -53.6283 -25.5615 -25.5441 -25.5421  -9.5463  -9.1715  -8.5237  -8.1767
    -8.1509  -7.9291  -7.8055  -7.5585  -7.1621  -6.9172  -6.8805  -6.7930
    -6.5488  -6.5106  -5.5329  -5.2894  -5.1679  -4.9255  -4.6816  -4.3140
    -3.9130  -3.5545  -3.4335  -3.3513  -3.1125  -3.0763  -2.9958  -2.9421
    -2.7606  -2.5907  -2.4896  -2.2956  -2.1409  -1.9383  -1.4329  -1.2207
    -1.1213  -1.0161  -0.7895  -0.6892  -0.6824  -0.4885  -0.3788  -0.1999
    -0.1926   0.2115   0.3665   0.4170   0.4774   0.7716   1.1113   1.1719
     1.2221   1.3474   1.3732   1.3987   1.5434   1.6665   1.7254   1.9445

          k = 0.0417-0.6495 0.0000 (192942 PWs)   bands (ev):

   -53.6283 -25.5615 -25.5441 -25.5421  -9.8594  -8.8351  -8.7354  -8.4868
    -8.2387  -7.7174  -7.4704  -7.3736  -7.2249  -7.1892  -7.1274  -6.3642
    -6.1208  -6.0811  -5.8378  -5.5935  -4.9890  -4.7444  -4.5035  -4.2128
    -3.8903  -3.7322  -3.6493  -3.4086  -3.2382  -3.1388  -2.7835  -2.6634
    -2.6109  -2.5762  -2.3711  -2.2203  -2.1559  -1.7453  -1.7132  -1.5332
    -1.3182  -1.2976  -1.0690  -0.9568  -0.8789  -0.7065  -0.5669  -0.1558
    -0.1353  -0.0208   0.1188   0.3017   0.4474   0.4627   0.7424   0.8443
     1.0652   1.2624   1.4274   1.4863   1.6524   1.7454   1.8788   1.9761

          k = 0.0417-0.5052 0.0000 (192883 PWs)   bands (ev):

   -53.6283 -25.5615 -25.5441 -25.5421 -10.1104  -9.0847  -8.7354  -8.4868
    -8.2387  -7.7175  -7.4716  -7.4369  -7.2234  -6.8818  -6.6366  -6.0829
    -5.8759  -5.8380  -5.6334  -5.5920  -5.2349  -4.4533  -4.2651  -4.0268
    -3.9717  -3.8913  -3.6493  -3.4760  -3.4073  -3.1388  -3.0197  -2.8264
    -2.6634  -2.2205  -2.2086  -2.1561  -2.1009  -1.9430  -1.7451  -1.6324
    -1.5384  -1.4991  -1.3185  -1.3007  -1.1876  -1.0626  -0.6925  -0.5672
    -0.4977  -0.1421  -0.1207   0.3063   0.3560   0.5197   0.8073   0.8438
     0.8477   0.9663   1.0675   1.2864   1.4751   1.5312   1.8822   2.1545

          k = 0.0417-0.3608 0.0000 (192862 PWs)   bands (ev):

   -53.6283 -25.5615 -25.5441 -25.5421 -10.2989  -9.2722  -8.9221  -8.6732
    -7.9032  -7.6821  -7.6569  -7.6229  -6.6702  -6.3308  -6.2667  -6.0866
    -6.0214  -5.4214  -5.3290  -5.0882  -5.0445  -4.6340  -4.1518  -4.0739
    -4.0302  -3.8306  -3.7338  -3.6547  -3.5027  -3.1975  -3.0575  -3.0065
    -2.8697  -2.7410  -2.5272  -2.1397  -2.1171  -1.8411  -1.7661  -1.7120
    -1.6911  -1.6113  -1.4784  -1.3640  -1.1238  -1.0973  -1.0631  -0.6614
    -0.5581  -0.2935  -0.0297   0.1892   0.2087   0.2552   0.6884   0.7716
     0.8539   1.0470   1.1361   1.1495   1.3268   1.3372   1.3553   1.7532

          k = 0.0417-0.2165 0.0000 (192942 PWs)   bands (ev):

   -53.6283 -25.5615 -25.5441 -25.5420 -10.4247  -9.3973  -9.0467  -8.7976
    -8.0271  -7.7807  -7.7471  -7.0660  -6.3897  -6.1441  -6.0582  -5.7214
    -5.5448  -5.4784  -4.8722  -4.7547  -4.7265  -4.4878  -4.4411  -4.2720
    -4.1948  -3.9516  -3.8839  -3.7743  -3.5607  -3.3380  -3.3163  -3.1611
    -3.1212  -2.9894  -2.4790  -2.3374  -2.3091  -2.2916  -2.2335  -1.8290
    -1.5950  -1.5620  -1.4824  -1.1193  -0.9457  -0.9056  -0.7039  -0.5322
    -0.4984  -0.4098  -0.2371  -0.0532   0.1025   0.3201   0.5899   0.6620
     0.7035   1.0167   1.0980   1.1596   1.2324   1.2726   1.3902   1.5200

          k = 0.0417-0.0722 0.0000 (192948 PWs)   bands (ev):

   -53.6283 -25.5615 -25.5441 -25.5420 -10.4876  -9.4600  -9.1090  -8.8598
    -8.0891  -7.8426  -7.8093  -6.4511  -6.3916  -6.2053  -5.6601  -5.6068
    -5.3886  -5.0553  -4.8151  -4.8149  -4.6635  -4.3322  -4.3321  -4.2562
    -4.1082  -4.0552  -4.0123  -3.8348  -3.8341  -3.7826  -3.3762  -3.3755
    -3.1859  -3.1640  -3.0744  -2.4473  -2.2947  -2.2891  -1.8908  -1.6950
    -1.6498  -1.5469  -1.5399  -1.3758  -1.2035  -0.7904  -0.4833  -0.3562
    -0.2167  -0.1634   0.0413   0.0558   0.2187   0.2436   0.5339   0.5394
     0.6264   0.6668   0.7650   0.7709   0.9636   1.0035   1.1783   1.3467

          k = 0.1250 0.0722 0.0000 (192973 PWs)   bands (ev):

   -53.6283 -25.5615 -25.5441 -25.5420 -10.4667  -9.4391  -9.3378  -8.5903
    -8.3165  -7.7904  -7.5729  -6.6765  -6.3713  -5.9404  -5.6398  -5.5860
    -5.3685  -5.2771  -5.2763  -4.6436  -4.5811  -4.5246  -4.4790  -4.2903
    -4.2867  -3.8354  -3.8343  -3.7688  -3.7474  -3.6008  -3.5632  -3.1648
    -3.0569  -2.9947  -2.9932  -2.5616  -2.5555  -2.1974  -2.1001  -1.6883
    -1.6046  -1.4499  -1.4024  -1.1650  -1.1559  -0.9506  -0.6017  -0.4758
    -0.3539  -0.3423  -0.2444   0.1698   0.2150   0.3342   0.4080   0.5352
     0.6942   0.9142   0.9379   1.0017   1.0204   1.0267   1.1732   1.4795

          k = 0.1250 0.2165 0.0000 (192926 PWs)   bands (ev):

   -53.6283 -25.5615 -25.5441 -25.5420 -10.4037  -9.3765  -9.2754  -8.5282
    -8.2544  -7.7282  -7.5111  -7.0455  -6.6149  -6.0381  -5.9444  -5.8791
    -5.5239  -5.2162  -5.2160  -4.9469  -4.8521  -4.4286  -4.4116  -4.2286
    -4.2283  -3.8650  -3.7749  -3.7746  -3.6909  -3.3797  -3.1046  -3.0610
    -2.9358  -2.9351  -2.4998  -2.4987  -2.3293  -2.2768  -2.1001  -2.0398
    -1.9942  -1.3466  -1.1060  -1.0985  -1.0573  -1.0184  -0.6756  -0.4231
    -0.3332  -0.2963  -0.2911  -0.1212  -0.0390   0.3445   0.3606   0.5939
     0.9749   1.0150   1.0612   1.0654   1.1813   1.2115   1.2291   1.5338

          k = 0.1250 0.3608 0.0000 (192891 PWs)   bands (ev):

   -53.6283 -25.5615 -25.5441 -25.5421 -10.2779  -9.2514  -9.1506  -8.4041
    -8.1303  -7.6615  -7.6040  -7.3877  -6.6499  -6.5550  -6.4917  -5.8227
    -5.7569  -5.5517  -5.4001  -5.0950  -5.0257  -4.8256  -4.2961  -4.1085
    -4.0106  -3.9487  -3.6551  -3.5709  -3.2615  -3.0398  -2.9873  -2.9416
    -2.8507  -2.8182  -2.5839  -2.3801  -2.3256  -1.9832  -1.9244  -1.7860
    -1.7736  -1.3584  -1.2315  -1.1767  -1.0178  -0.9840  -0.9050  -0.5432
    -0.2925  -0.2713  -0.2182  -0.1830   0.0138   0.4207   0.6228   0.7223
     0.9586   1.0837   1.1346   1.1594   1.2983   1.3445   1.6669   1.8497

          k = 0.1250 0.5052 0.0000 (192912 PWs)   bands (ev):

   -53.6283 -25.5615 -25.5441 -25.5421 -10.0894  -9.0639  -8.9636  -8.2185
    -8.2176  -7.9443  -7.4180  -7.2049  -7.2007  -7.1070  -6.3714  -6.3076
    -6.0992  -5.5798  -5.5674  -5.3690  -5.2141  -4.9135  -4.4845  -4.1131
    -3.9289  -3.7704  -3.4756  -3.4022  -3.3759  -3.1504  -3.0832  -2.8071
    -2.6431  -2.3752  -2.2046  -2.2010  -2.1496  -2.1380  -1.7467  -1.7044
    -1.6043  -1.2923  -1.0779  -1.0397  -1.0230  -0.8383  -0.8098  -0.5069
    -0.3052  -0.2804  -0.1138  -0.0293   0.1438   0.5850   0.8014   0.8773
     1.1312   1.2227   1.2634   1.3156   1.4382   1.5059   1.8390   2.0284

          k = 0.1250 0.6495 0.0000 (192967 PWs)   bands (ev):

   -53.6283 -25.5615 -25.5441 -25.5421  -9.8385  -8.8143  -8.7151  -8.7142
    -7.9703  -7.6991  -7.6945  -7.5996  -7.1703  -6.9566  -6.8613  -6.5886
    -6.0679  -6.0564  -5.8550  -5.3301  -4.9751  -4.9589  -4.6719  -4.2439
    -3.8831  -3.8569  -3.6901  -3.5924  -3.2368  -3.1514  -2.8063  -2.6302
    -2.5698  -2.4104  -2.2052  -2.1440  -2.1354  -1.9669  -1.5363  -1.4888
    -1.4722  -1.2277  -1.0577  -0.8228  -0.8066  -0.6290  -0.5828  -0.1796
    -0.0638   0.0907   0.1104   0.1462   0.3729   0.6878   0.9115   0.9841
     1.0395   1.1994   1.4606   1.5087   1.5310   1.6301   1.6624   2.0471

          k = 0.1250 0.7939 0.0000 (192964 PWs)   bands (ev):

   -53.6283 -25.5615 -25.5441 -25.5421  -9.5254  -9.1507  -8.5030  -8.4040
    -8.1303  -8.0322  -7.6614  -7.3880  -7.2915  -7.0185  -6.8614  -6.6496
    -6.4916  -6.2821  -5.7564  -5.3906  -5.0267  -4.6710  -4.6541  -4.3708
    -4.2935  -4.0106  -3.5703  -3.3928  -3.2120  -3.0381  -2.9393  -2.8570
    -2.5841  -2.5113  -2.2757  -2.1221  -1.9192  -1.7839  -1.6776  -1.3586
    -1.2236  -1.1767  -0.8832  -0.5489  -0.3470  -0.3254  -0.2755  -0.2142
     0.0121   0.1133   0.3478   0.4093   0.6070   0.7903   0.9603   0.9798
     1.1304   1.2048   1.2561   1.5394   1.6213   1.6673   1.8991   1.9994

          k = 0.1250-0.7939 0.0000 (192964 PWs)   bands (ev):

   -53.6283 -25.5615 -25.5441 -25.5421  -9.5254  -9.1507  -8.5030  -8.4040
    -8.1303  -8.0322  -7.6614  -7.3880  -7.2915  -7.0185  -6.8614  -6.6496
    -6.4916  -6.2821  -5.7564  -5.3906  -5.0267  -4.6710  -4.6541  -4.3708
    -4.2935  -4.0106  -3.5703  -3.3928  -3.2120  -3.0381  -2.9393  -2.8570
    -2.5841  -2.5113  -2.2757  -2.1221  -1.9192  -1.7839  -1.6776  -1.3586
    -1.2236  -1.1767  -0.8832  -0.5489  -0.3470  -0.3254  -0.2755  -0.2142
     0.0121   0.1133   0.3478   0.4093   0.6070   0.7903   0.9603   0.9798
     1.1304   1.2048   1.2561   1.5394   1.6213   1.6673   1.8991   1.9994

          k = 0.1250-0.6495 0.0000 (192967 PWs)   bands (ev):

   -53.6283 -25.5615 -25.5441 -25.5421  -9.8385  -8.8143  -8.7151  -8.7142
    -7.9703  -7.6991  -7.6945  -7.5996  -7.1703  -6.9566  -6.8613  -6.5886
    -6.0679  -6.0564  -5.8550  -5.3301  -4.9751  -4.9589  -4.6719  -4.2439
    -3.8831  -3.8569  -3.6901  -3.5924  -3.2368  -3.1514  -2.8063  -2.6302
    -2.5698  -2.4104  -2.2052  -2.1440  -2.1354  -1.9669  -1.5363  -1.4888
    -1.4722  -1.2277  -1.0577  -0.8228  -0.8066  -0.6290  -0.5828  -0.1796
    -0.0638   0.0907   0.1104   0.1462   0.3729   0.6878   0.9115   0.9841
     1.0395   1.1994   1.4606   1.5087   1.5310   1.6301   1.6624   2.0471

          k = 0.1250-0.5052 0.0000 (192912 PWs)   bands (ev):

   -53.6283 -25.5615 -25.5441 -25.5421 -10.0894  -9.0639  -8.9636  -8.2185
    -8.2176  -7.9443  -7.4180  -7.2049  -7.2007  -7.1070  -6.3714  -6.3076
    -6.0992  -5.5798  -5.5674  -5.3690  -5.2141  -4.9135  -4.4845  -4.1131
    -3.9289  -3.7704  -3.4756  -3.4022  -3.3759  -3.1504  -3.0832  -2.8071
    -2.6431  -2.3752  -2.2046  -2.2010  -2.1496  -2.1380  -1.7467  -1.7044
    -1.6043  -1.2923  -1.0779  -1.0397  -1.0230  -0.8383  -0.8098  -0.5069
    -0.3052  -0.2804  -0.1138  -0.0293   0.1438   0.5850   0.8014   0.8773
     1.1312   1.2227   1.2634   1.3156   1.4382   1.5059   1.8390   2.0284

          k = 0.1250-0.3608 0.0000 (192891 PWs)   bands (ev):

   -53.6283 -25.5615 -25.5441 -25.5421 -10.2779  -9.2514  -9.1506  -8.4041
    -8.1303  -7.6615  -7.6040  -7.3877  -6.6499  -6.5550  -6.4917  -5.8227
    -5.7569  -5.5517  -5.4001  -5.0950  -5.0257  -4.8256  -4.2961  -4.1085
    -4.0106  -3.9487  -3.6551  -3.5709  -3.2615  -3.0398  -2.9873  -2.9416
    -2.8507  -2.8182  -2.5839  -2.3801  -2.3256  -1.9832  -1.9244  -1.7860
    -1.7736  -1.3584  -1.2315  -1.1767  -1.0178  -0.9840  -0.9050  -0.5432
    -0.2925  -0.2713  -0.2182  -0.1830   0.0138   0.4207   0.6228   0.7223
     0.9586   1.0837   1.1346   1.1594   1.2983   1.3445   1.6669   1.8497

          k = 0.1250-0.2165 0.0000 (192926 PWs)   bands (ev):

   -53.6283 -25.5615 -25.5441 -25.5420 -10.4037  -9.3765  -9.2754  -8.5282
    -8.2544  -7.7282  -7.5111  -7.0455  -6.6149  -6.0381  -5.9444  -5.8791
    -5.5239  -5.2162  -5.2160  -4.9469  -4.8521  -4.4286  -4.4116  -4.2286
    -4.2283  -3.8650  -3.7749  -3.7746  -3.6909  -3.3797  -3.1046  -3.0610
    -2.9358  -2.9351  -2.4998  -2.4987  -2.3293  -2.2768  -2.1001  -2.0398
    -1.9942  -1.3466  -1.1060  -1.0985  -1.0573  -1.0184  -0.6756  -0.4231
    -0.3332  -0.2963  -0.2911  -0.1212  -0.0390   0.3445   0.3606   0.5939
     0.9749   1.0150   1.0612   1.0654   1.1813   1.2115   1.2291   1.5338

          k = 0.1250-0.0722 0.0000 (192973 PWs)   bands (ev):

   -53.6283 -25.5615 -25.5441 -25.5420 -10.4667  -9.4391  -9.3378  -8.5903
    -8.3165  -7.7904  -7.5729  -6.6765  -6.3713  -5.9404  -5.6398  -5.5860
    -5.3685  -5.2771  -5.2763  -4.6436  -4.5811  -4.5246  -4.4790  -4.2903
    -4.2867  -3.8354  -3.8343  -3.7688  -3.7474  -3.6008  -3.5632  -3.1648
    -3.0569  -2.9947  -2.9932  -2.5616  -2.5555  -2.1974  -2.1001  -1.6883
    -1.6046  -1.4499  -1.4024  -1.1650  -1.1559  -0.9506  -0.6017  -0.4758
    -0.3539  -0.3423  -0.2444   0.1698   0.2150   0.3342   0.4080   0.5352
     0.6942   0.9142   0.9379   1.0017   1.0204   1.0267   1.1732   1.4795

          k = 0.2083 0.0722 0.0000 (192934 PWs)   bands (ev):

   -53.6283 -25.5615 -25.5441 -25.5420 -10.4247  -9.5463  -9.3973  -8.5237
    -8.3007  -7.7489  -7.2851  -6.8819  -6.3305  -5.7214  -5.6573  -5.5993
    -5.5430  -5.4785  -5.3281  -4.7548  -4.7283  -4.6805  -4.6031  -4.4866
    -4.2720  -3.7745  -3.7260  -3.5609  -3.4742  -3.3379  -3.3160  -3.1613
    -3.1209  -3.0209  -2.9892  -2.4786  -2.3121  -2.2926  -2.2316  -1.8200
    -1.6910  -1.4874  -1.1435  -1.0804  -0.9795  -0.9435  -0.9045  -0.5354
    -0.5009  -0.4658  -0.4057   0.0077   0.1040   0.3990   0.5393   0.5901
     0.7573   0.7776   0.8496   0.9581   1.2645   1.3566   1.3911   1.5161

          k = 0.2083 0.2165 0.0000 (192892 PWs)   bands (ev):

   -53.6283 -25.5615 -25.5441 -25.5420 -10.3618  -9.4837  -9.3347  -8.4615
    -8.2387  -7.6867  -7.2235  -7.0046  -6.8202  -6.1476  -5.9973  -5.6606
    -5.5961  -5.4809  -5.1478  -4.9344  -4.8121  -4.6679  -4.6191  -4.3820
    -3.9894  -3.9341  -3.8258  -3.5624  -3.4139  -3.2786  -3.1017  -3.0620
    -3.0456  -2.8004  -2.4520  -2.3316  -2.2800  -2.2561  -2.2462  -2.2213
    -1.8986  -1.4285  -1.2600  -1.1284  -1.0767  -0.8467  -0.4712  -0.3810
    -0.3500  -0.2966  -0.0870  -0.0552   0.0364   0.2052   0.2992   0.4588
     0.8046   0.8185   0.8669   1.0000   1.0179   1.1922   1.4454   1.5633

          k = 0.2083 0.3608 0.0000 (192925 PWs)   bands (ev):

   -53.6283 -25.5615 -25.5441 -25.5421 -10.2360  -9.3587  -9.2096  -8.3372
    -8.1148  -7.6203  -7.5625  -7.1003  -6.7593  -6.6970  -6.6087  -5.7541
    -5.5392  -5.5389  -5.4741  -5.3573  -4.9854  -4.5475  -4.5453  -4.4966
    -4.1459  -3.9713  -3.2949  -3.1610  -3.1595  -3.0415  -2.9884  -2.9793
    -2.9752  -2.9404  -2.8122  -2.2198  -2.1366  -2.1306  -2.1146  -2.1071
    -1.7478  -1.4135  -0.9705  -0.8114  -0.7385  -0.7294  -0.7114  -0.5176
    -0.3661  -0.3486  -0.3447  -0.2309   0.1585   0.4006   0.5692   0.5907
     0.7319   0.9330   1.1262   1.2181   1.5137   1.5406   1.5648   1.6624

          k = 0.2083 0.5052 0.0000 (192924 PWs)   bands (ev):

   -53.6283 -25.5615 -25.5441 -25.5421 -10.0476  -9.1715  -9.0222  -8.1768
    -8.1509  -7.9291  -7.3767  -7.3121  -7.1618  -6.9157  -6.5123  -6.3028
    -6.0864  -5.5329  -5.3568  -5.2913  -5.1718  -5.0863  -4.6847  -4.3666
    -4.3133  -3.5545  -3.4978  -3.3486  -3.1139  -3.0763  -2.9826  -2.8058
    -2.7639  -2.5923  -2.5456  -2.2909  -2.1409  -1.9573  -1.9372  -1.5330
    -1.2207  -1.1217  -1.0576  -1.0172  -0.8833  -0.7854  -0.5653  -0.3831
    -0.2109  -0.1921  -0.1800  -0.0570   0.1261   0.4128   0.7406   1.0325
     1.1108   1.2264   1.3063   1.3899   1.5737   1.5856   1.6727   1.7902

          k = 0.2083 0.6495 0.0000 (192946 PWs)   bands (ev):

   -53.6283 -25.5615 -25.5441 -25.5421  -9.7967  -8.9221  -8.7727  -8.6732
    -7.9031  -7.8055  -7.6820  -7.6554  -7.1290  -6.7931  -6.6701  -6.5752
    -6.2666  -6.0211  -5.5712  -5.1684  -5.1143  -5.0483  -4.9252  -4.1265
    -4.0712  -4.0302  -3.9662  -3.8271  -3.0578  -2.9974  -2.8772  -2.7463
    -2.5702  -2.5271  -2.1396  -1.9198  -1.7238  -1.7057  -1.6910  -1.6115
    -1.4705  -1.2082  -1.0992  -0.7192  -0.6605  -0.5635  -0.3543  -0.2113
    -0.0232  -0.0052   0.1664   0.2550   0.5890   0.9132   0.9610   1.0043
     1.1427   1.1785   1.3284   1.3334   1.3373   1.5137   1.7636   1.8292

          k = 0.2083 0.7939 0.0000 (192995 PWs)   bands (ev):

   -53.6283 -25.5615 -25.5441 -25.5421  -9.4838  -9.1091  -8.6111  -8.4614
    -8.2387  -8.0888  -7.5937  -7.3736  -7.2236  -7.0046  -6.8202  -6.4508
    -6.3637  -5.9973  -5.9600  -5.5935  -4.8121  -4.7461  -4.6193  -4.4504
    -4.3839  -4.2518  -3.8273  -3.7683  -3.4700  -3.4081  -2.5867  -2.4519
    -2.2813  -2.2570  -2.2225  -2.1010  -1.9426  -1.8778  -1.4318  -1.4115
    -1.1598  -1.0878  -1.0660  -0.3662  -0.3066  -0.2945  -0.2620   0.0349
     0.1854   0.2767   0.2986   0.4365   0.7650   0.8103   0.8142   0.8718
     0.9860   1.1595   1.2082   1.5768   1.6464   1.7229   1.7499   1.7832

          k = 0.2083-0.7939 0.0000 (192995 PWs)   bands (ev):

   -53.6283 -25.5615 -25.5441 -25.5421  -9.4838  -9.1091  -8.6111  -8.4614
    -8.2387  -8.0888  -7.5937  -7.3736  -7.2236  -7.0046  -6.8202  -6.4508
    -6.3637  -5.9973  -5.9600  -5.5935  -4.8121  -4.7461  -4.6193  -4.4504
    -4.3839  -4.2518  -3.8273  -3.7683  -3.4700  -3.4081  -2.5867  -2.4519
    -2.2813  -2.2570  -2.2225  -2.1010  -1.9426  -1.8778  -1.4318  -1.4115
    -1.1598  -1.0878  -1.0660  -0.3662  -0.3066  -0.2945  -0.2620   0.0349
     0.1854   0.2767   0.2986   0.4365   0.7650   0.8103   0.8142   0.8718
     0.9860   1.1595   1.2082   1.5768   1.6464   1.7229   1.7499   1.7832

          k = 0.2083-0.6495 0.0000 (192946 PWs)   bands (ev):

   -53.6283 -25.5615 -25.5441 -25.5421  -9.7967  -8.9221  -8.7727  -8.6732
    -7.9031  -7.8055  -7.6820  -7.6554  -7.1290  -6.7931  -6.6701  -6.5752
    -6.2666  -6.0211  -5.5712  -5.1684  -5.1143  -5.0483  -4.9252  -4.1265
    -4.0712  -4.0302  -3.9662  -3.8271  -3.0578  -2.9974  -2.8772  -2.7463
    -2.5702  -2.5271  -2.1396  -1.9198  -1.7238  -1.7057  -1.6910  -1.6115
    -1.4705  -1.2082  -1.0992  -0.7192  -0.6605  -0.5635  -0.3543  -0.2113
    -0.0232  -0.0052   0.1664   0.2550   0.5890   0.9132   0.9610   1.0043
     1.1427   1.1785   1.3284   1.3334   1.3373   1.5137   1.7636   1.8292

          k = 0.2083-0.5052 0.0000 (192924 PWs)   bands (ev):

   -53.6283 -25.5615 -25.5441 -25.5421 -10.0476  -9.1715  -9.0222  -8.1768
    -8.1509  -7.9291  -7.3767  -7.3121  -7.1618  -6.9157  -6.5123  -6.3028
    -6.0864  -5.5329  -5.3568  -5.2913  -5.1718  -5.0863  -4.6847  -4.3666
    -4.3133  -3.5545  -3.4978  -3.3486  -3.1139  -3.0763  -2.9826  -2.8058
    -2.7639  -2.5923  -2.5456  -2.2909  -2.1409  -1.9573  -1.9372  -1.5330
    -1.2207  -1.1217  -1.0576  -1.0172  -0.8833  -0.7854  -0.5653  -0.3831
    -0.2109  -0.1921  -0.1800  -0.0570   0.1261   0.4128   0.7406   1.0325
     1.1108   1.2264   1.3063   1.3899   1.5737   1.5856   1.6727   1.7902

          k = 0.2083-0.3608 0.0000 (192925 PWs)   bands (ev):

   -53.6283 -25.5615 -25.5441 -25.5421 -10.2360  -9.3587  -9.2096  -8.3372
    -8.1148  -7.6203  -7.5625  -7.1003  -6.7593  -6.6970  -6.6087  -5.7541
    -5.5392  -5.5389  -5.4741  -5.3573  -4.9854  -4.5475  -4.5453  -4.4966
    -4.1459  -3.9713  -3.2949  -3.1610  -3.1595  -3.0415  -2.9884  -2.9793
    -2.9752  -2.9404  -2.8122  -2.2198  -2.1366  -2.1306  -2.1146  -2.1071
    -1.7478  -1.4135  -0.9705  -0.8114  -0.7385  -0.7294  -0.7114  -0.5176
    -0.3661  -0.3486  -0.3447  -0.2309   0.1585   0.4006   0.5692   0.5907
     0.7319   0.9330   1.1262   1.2181   1.5137   1.5406   1.5648   1.6624

          k = 0.2083-0.2165 0.0000 (192892 PWs)   bands (ev):

   -53.6283 -25.5615 -25.5441 -25.5420 -10.3618  -9.4837  -9.3347  -8.4615
    -8.2387  -7.6867  -7.2235  -7.0046  -6.8202  -6.1476  -5.9973  -5.6606
    -5.5961  -5.4809  -5.1478  -4.9344  -4.8121  -4.6679  -4.6191  -4.3820
    -3.9894  -3.9341  -3.8258  -3.5624  -3.4139  -3.2786  -3.1017  -3.0620
    -3.0456  -2.8004  -2.4520  -2.3316  -2.2800  -2.2561  -2.2462  -2.2213
    -1.8986  -1.4285  -1.2600  -1.1284  -1.0767  -0.8467  -0.4712  -0.3810
    -0.3500  -0.2966  -0.0870  -0.0552   0.0364   0.2052   0.2992   0.4588
     0.8046   0.8185   0.8669   1.0000   1.0179   1.1922   1.4454   1.5633

          k = 0.2083-0.0722 0.0000 (192934 PWs)   bands (ev):

   -53.6283 -25.5615 -25.5441 -25.5420 -10.4247  -9.5463  -9.3973  -8.5237
    -8.3007  -7.7489  -7.2851  -6.8819  -6.3305  -5.7214  -5.6573  -5.5993
    -5.5430  -5.4785  -5.3281  -4.7548  -4.7283  -4.6805  -4.6031  -4.4866
    -4.2720  -3.7745  -3.7260  -3.5609  -3.4742  -3.3379  -3.3160  -3.1613
    -3.1209  -3.0209  -2.9892  -2.4786  -2.3121  -2.2926  -2.2316  -1.8200
    -1.6910  -1.4874  -1.1435  -1.0804  -0.9795  -0.9435  -0.9045  -0.5354
    -0.5009  -0.4658  -0.4057   0.0077   0.1040   0.3990   0.5393   0.5901
     0.7573   0.7776   0.8496   0.9581   1.2645   1.3566   1.3911   1.5161

          k = 0.2917 0.0722 0.0000 (192893 PWs)   bands (ev):

   -53.6283 -25.5615 -25.5441 -25.5420 -10.3618  -9.7340  -9.3347  -8.7104
    -7.9910  -7.6867  -7.0673  -6.9772  -6.2695  -6.1476  -5.6606  -5.5388
    -5.4860  -5.3481  -5.2676  -5.1480  -4.9345  -4.8656  -4.6658  -4.5436
    -3.9894  -3.9341  -3.6679  -3.5623  -3.2788  -3.1874  -3.1000  -3.0564
    -3.0458  -2.9686  -2.8004  -2.4711  -2.3279  -2.2490  -2.2080  -1.8986
    -1.7540  -1.3194  -1.2886  -1.2549  -1.1253  -0.8802  -0.8406  -0.5773
    -0.4676  -0.3771  -0.3393  -0.0863  -0.0528   0.2243   0.2645   0.4346
     0.8092   0.8836   0.9446   1.0096   1.0558   1.1687   1.2117   1.4440

          k = 0.2917 0.2165 0.0000 (192850 PWs)   bands (ev):

   -53.6283 -25.5615 -25.5441 -25.5420 -10.2989  -9.6714  -9.2722  -8.6481
    -7.9292  -7.6246  -7.0055  -6.9431  -6.9157  -6.3307  -6.0866  -5.9364
    -5.4243  -5.3289  -5.2871  -5.0874  -4.8042  -4.7519  -4.6340  -4.3225
    -4.1517  -3.7675  -3.7342  -3.6549  -3.5028  -3.1979  -3.1262  -2.9966
    -2.8463  -2.7410  -2.5273  -2.4128  -2.2907  -2.1980  -2.1145  -1.8405
    -1.7727  -1.7585  -1.3694  -1.1234  -1.0639  -0.8145  -0.7053  -0.3273
    -0.2571  -0.0298  -0.0210   0.1366   0.1938   0.2197   0.2845   0.3218
     0.4779   0.5532   0.6961   0.8340   1.0016   1.0679   1.2692   1.5095

          k = 0.2917 0.3608 0.0000 (192930 PWs)   bands (ev):

   -53.6283 -25.5615 -25.5441 -25.5421 -10.1732  -9.5462  -9.1471  -8.5237
    -7.8055  -7.5587  -7.5004  -6.9433  -6.8820  -6.7928  -6.5475  -5.9646
    -5.9367  -5.3007  -5.2358  -5.1655  -4.9665  -4.9249  -4.6813  -4.3245
    -4.2461  -3.9130  -3.4335  -3.3841  -3.3220  -3.0099  -2.9425  -2.8807
    -2.7677  -2.7438  -2.6223  -2.4900  -2.3015  -2.2572  -2.2385  -1.7237
    -1.5606  -1.4322  -0.9528  -0.7288  -0.6959  -0.6845  -0.5584  -0.4899
    -0.2777  -0.2005  -0.1876   0.0832   0.2091   0.2654   0.4006   0.4416
     0.4781   1.0105   1.1093   1.1697   1.1800   1.3478   1.3843   1.4332

          k = 0.2917 0.5052 0.0000 (192991 PWs)   bands (ev):

   -53.6283 -25.5615 -25.5441 -25.5421  -9.9848  -9.3587  -8.9598  -8.3372
    -8.1148  -7.6203  -7.4969  -7.3147  -7.1003  -6.6971  -6.6087  -6.4864
    -5.7819  -5.7817  -5.4719  -5.1151  -4.9835  -4.8656  -4.7850  -4.7846
    -4.4974  -3.9713  -3.2950  -3.2065  -3.2035  -3.0414  -2.9756  -2.8288
    -2.7211  -2.6904  -2.4447  -2.4443  -2.1190  -2.1081  -1.5524  -1.5471
    -1.4136  -0.9693  -0.8205  -0.7857  -0.7728  -0.7119  -0.5242  -0.3523
    -0.2580  -0.0143   0.1589   0.2428   0.2487   0.3455   0.5739   0.6102
     0.9370   1.2134   1.2602   1.3114   1.3313   1.5539   1.7867   1.8613

          k = 0.2917 0.6495 0.0000 (192996 PWs)   bands (ev):

   -53.6283 -25.5615 -25.5441 -25.5421  -9.7341  -9.1090  -8.7104  -8.6111
    -8.0889  -7.9910  -7.5937  -7.3736  -7.0672  -6.9773  -6.4509  -6.3637
    -6.2694  -5.9599  -5.5385  -5.3504  -5.2677  -4.8688  -4.7413  -4.5439
    -4.4504  -4.2539  -3.7722  -3.6649  -3.4689  -3.1737  -2.9706  -2.5937
    -2.4639  -2.2080  -2.1011  -1.9427  -1.8803  -1.7552  -1.4188  -1.3189
    -1.2792  -1.1596  -1.0853  -0.8576  -0.5736  -0.3538  -0.2994  -0.2622
     0.1886   0.2395   0.2799   0.4350   0.7875   0.8202   0.8359   0.9848
     1.0573   1.1431   1.1772   1.2271   1.4964   1.6442   1.6558   1.7275

          k = 0.2917 0.7939 0.0000 (193052 PWs)   bands (ev):

   -53.6283 -25.5615 -25.5441 -25.5421  -9.4212  -9.0468  -8.7976  -8.4248
    -8.3993  -8.0269  -7.7792  -7.4085  -7.0660  -6.7587  -6.6977  -6.3893
    -6.1439  -6.0581  -5.7767  -5.6925  -5.2351  -4.8722  -4.5633  -4.4399
    -4.2436  -4.1958  -4.0800  -3.9503  -3.8841  -3.5882  -2.6791  -2.3369
    -2.3067  -2.1722  -1.9731  -1.9134  -1.8180  -1.5874  -1.5620  -1.2390
    -1.1190  -1.0360  -0.7037  -0.4779  -0.4284  -0.2382  -0.0713   0.1037
     0.3088   0.3413   0.4728   0.6228   0.6855   0.6994   0.8463   1.0288
     1.0777   1.1035   1.1642   1.2737   1.4337   1.5936   1.6254   1.7895

          k = 0.2917-0.7939 0.0000 (193052 PWs)   bands (ev):

   -53.6283 -25.5615 -25.5441 -25.5421  -9.4212  -9.0468  -8.7976  -8.4248
    -8.3993  -8.0269  -7.7792  -7.4085  -7.0660  -6.7587  -6.6977  -6.3893
    -6.1439  -6.0581  -5.7767  -5.6925  -5.2351  -4.8722  -4.5633  -4.4399
    -4.2436  -4.1958  -4.0800  -3.9503  -3.8841  -3.5882  -2.6791  -2.3369
    -2.3067  -2.1722  -1.9731  -1.9134  -1.8180  -1.5874  -1.5620  -1.2390
    -1.1190  -1.0360  -0.7037  -0.4779  -0.4284  -0.2382  -0.0713   0.1037
     0.3088   0.3413   0.4728   0.6228   0.6855   0.6994   0.8463   1.0288
     1.0777   1.1035   1.1642   1.2737   1.4337   1.5936   1.6254   1.7895

          k = 0.2917-0.6495 0.0000 (192996 PWs)   bands (ev):

   -53.6283 -25.5615 -25.5441 -25.5421  -9.7341  -9.1090  -8.7104  -8.6111
    -8.0889  -7.9910  -7.5937  -7.3736  -7.0672  -6.9773  -6.4509  -6.3637
    -6.2694  -5.9599  -5.5385  -5.3504  -5.2677  -4.8688  -4.7413  -4.5439
    -4.4504  -4.2539  -3.7722  -3.6649  -3.4689  -3.1737  -2.9706  -2.5937
    -2.4639  -2.2080  -2.1011  -1.9427  -1.8803  -1.7552  -1.4188  -1.3189
    -1.2792  -1.1596  -1.0853  -0.8576  -0.5736  -0.3538  -0.2994  -0.2622
     0.1886   0.2395   0.2799   0.4350   0.7875   0.8202   0.8359   0.9848
     1.0573   1.1431   1.1772   1.2271   1.4964   1.6442   1.6558   1.7275

          k = 0.2917-0.5052 0.0000 (192991 PWs)   bands (ev):

   -53.6283 -25.5615 -25.5441 -25.5421  -9.9848  -9.3587  -8.9598  -8.3372
    -8.1148  -7.6203  -7.4969  -7.3147  -7.1003  -6.6971  -6.6087  -6.4864
    -5.7819  -5.7817  -5.4719  -5.1151  -4.9835  -4.8656  -4.7850  -4.7846
    -4.4974  -3.9713  -3.2950  -3.2065  -3.2035  -3.0414  -2.9756  -2.8288
    -2.7211  -2.6904  -2.4447  -2.4443  -2.1190  -2.1081  -1.5524  -1.5471
    -1.4136  -0.9693  -0.8205  -0.7857  -0.7728  -0.7119  -0.5242  -0.3523
    -0.2580  -0.0143   0.1589   0.2428   0.2487   0.3455   0.5739   0.6102
     0.9370   1.2134   1.2602   1.3114   1.3313   1.5539   1.7867   1.8613

          k = 0.2917-0.3608 0.0000 (192930 PWs)   bands (ev):

   -53.6283 -25.5615 -25.5441 -25.5421 -10.1732  -9.5462  -9.1471  -8.5237
    -7.8055  -7.5587  -7.5004  -6.9433  -6.8820  -6.7928  -6.5475  -5.9646
    -5.9367  -5.3007  -5.2358  -5.1655  -4.9665  -4.9249  -4.6813  -4.3245
    -4.2461  -3.9130  -3.4335  -3.3841  -3.3220  -3.0099  -2.9425  -2.8807
    -2.7677  -2.7438  -2.6223  -2.4900  -2.3015  -2.2572  -2.2385  -1.7237
    -1.5606  -1.4322  -0.9528  -0.7288  -0.6959  -0.6845  -0.5584  -0.4899
    -0.2777  -0.2005  -0.1876   0.0832   0.2091   0.2654   0.4006   0.4416
     0.4781   1.0105   1.1093   1.1697   1.1800   1.3478   1.3843   1.4332

          k = 0.2917-0.2165 0.0000 (192850 PWs)   bands (ev):

   -53.6283 -25.5615 -25.5441 -25.5420 -10.2989  -9.6714  -9.2722  -8.6481
    -7.9292  -7.6246  -7.0055  -6.9431  -6.9157  -6.3307  -6.0866  -5.9364
    -5.4243  -5.3289  -5.2871  -5.0874  -4.8042  -4.7519  -4.6340  -4.3225
    -4.1517  -3.7675  -3.7342  -3.6549  -3.5028  -3.1979  -3.1262  -2.9966
    -2.8463  -2.7410  -2.5273  -2.4128  -2.2907  -2.1980  -2.1145  -1.8405
    -1.7727  -1.7585  -1.3694  -1.1234  -1.0639  -0.8145  -0.7053  -0.3273
    -0.2571  -0.0298  -0.0210   0.1366   0.1938   0.2197   0.2845   0.3218
     0.4779   0.5532   0.6961   0.8340   1.0016   1.0679   1.2692   1.5095

          k = 0.2917-0.0722 0.0000 (192893 PWs)   bands (ev):

   -53.6283 -25.5615 -25.5441 -25.5420 -10.3618  -9.7340  -9.3347  -8.7104
    -7.9910  -7.6867  -7.0673  -6.9772  -6.2695  -6.1476  -5.6606  -5.5388
    -5.4860  -5.3481  -5.2676  -5.1480  -4.9345  -4.8656  -4.6658  -4.5436
    -3.9894  -3.9341  -3.6679  -3.5623  -3.2788  -3.1874  -3.1000  -3.0564
    -3.0458  -2.9686  -2.8004  -2.4711  -2.3279  -2.2490  -2.2080  -1.8986
    -1.7540  -1.3194  -1.2886  -1.2549  -1.1253  -0.8802  -0.8406  -0.5773
    -0.4676  -0.3771  -0.3393  -0.0863  -0.0528   0.2243   0.2645   0.4346
     0.8092   0.8836   0.9446   1.0096   1.0558   1.1687   1.2117   1.4440

          k = 0.3750 0.0722 0.0000 (192872 PWs)   bands (ev):

   -53.6283 -25.5615 -25.5441 -25.5420 -10.2779  -9.9011  -9.2513  -8.8766
    -7.6616  -7.6038  -7.2320  -6.6498  -6.5550  -6.1881  -5.8226  -5.5518
    -5.4580  -5.4023  -5.1872  -5.0950  -5.0349  -5.0201  -4.8257  -4.4641
    -4.1090  -3.9488  -3.6550  -3.5908  -3.2616  -3.0054  -2.9418  -2.9058
    -2.8537  -2.8180  -2.6254  -2.5846  -2.3791  -2.3250  -1.9831  -1.9733
    -1.7769  -1.6312  -1.4317  -1.0212  -0.9868  -0.9058  -0.7019  -0.6659
    -0.5772  -0.3600  -0.2208  -0.1997  -0.1816   0.0964   0.1427   0.4255
     0.6270   0.6503   0.7421   0.9470   0.9855   1.1553   1.3045   1.4061

          k = 0.3750 0.2165 0.0000 (192883 PWs)   bands (ev):

   -53.6283 -25.5615 -25.5441 -25.5420 -10.2151  -9.8384  -9.1888  -8.8143
    -7.5999  -7.5418  -7.1702  -6.8614  -6.5885  -6.4942  -6.4933  -5.8553
    -5.4934  -5.4885  -5.3401  -4.9739  -4.9590  -4.6720  -4.3415  -4.2827
    -4.2431  -3.8944  -3.8836  -3.6906  -3.3651  -3.3231  -3.2366  -2.9437
    -2.7943  -2.5669  -2.4105  -2.2677  -2.2656  -2.1410  -1.9683  -1.9631
    -1.7255  -1.7113  -1.3675  -1.0581  -0.9671  -0.9512  -0.6406  -0.5849
    -0.3080  -0.1380  -0.0599   0.1081   0.1946   0.3610   0.4338   0.4774
     0.4876   0.6049   0.6830   0.6967   0.7182   0.9153   1.0195   1.5305

          k = 0.3750 0.3608 0.0000 (192896 PWs)   bands (ev):

   -53.6283 -25.5615 -25.5441 -25.5421 -10.0895  -9.7131  -9.0638  -8.6896
    -7.4771  -7.4759  -7.4177  -7.1071  -7.0464  -6.4681  -6.4637  -6.3714
    -6.0993  -5.3695  -5.2171  -4.9137  -4.8577  -4.8391  -4.8363  -4.4837
    -3.9294  -3.8635  -3.8006  -3.7694  -3.4753  -2.8959  -2.8496  -2.8258
    -2.6876  -2.6724  -2.6416  -2.4507  -2.3690  -2.2011  -2.1489  -1.6026
    -1.5096  -1.2918  -0.9074  -0.8431  -0.8118  -0.5432  -0.5050  -0.2965
    -0.1924  -0.0576  -0.0273  -0.0132   0.1457   0.2537   0.3173   0.5898
     0.6345   0.7977   0.8082   0.8254   1.1302   1.2358   1.3141   1.3535

          k = 0.3750 0.5052 0.0000 (192945 PWs)   bands (ev):

   -53.6283 -25.5615 -25.5441 -25.5421  -9.9012  -9.5254  -8.8766  -8.5029
    -8.0323  -7.6614  -7.2917  -7.2320  -7.0183  -6.8613  -6.6498  -6.2823
    -6.1880  -5.4579  -5.3908  -5.1876  -5.0378  -5.0203  -4.6687  -4.6542
    -4.4640  -4.3707  -3.5907  -3.3934  -3.2141  -2.9392  -2.9088  -2.8634
    -2.6444  -2.5846  -2.4994  -2.2702  -2.1220  -1.9732  -1.6773  -1.6313
    -1.4302  -0.8978  -0.6865  -0.6671  -0.5721  -0.3569  -0.3266  -0.2388
    -0.2104  -0.0009   0.1034   0.1553   0.3564   0.4861   0.6101   0.6343
     0.7448   0.9716   0.9911   1.2136   1.2810   1.4038   1.5702   1.7770

          k = 0.3750 0.6495 0.0000 (193025 PWs)   bands (ev):

   -53.6283 -25.5615 -25.5441 -25.5421  -9.6506  -9.2754  -8.6274  -8.5283
    -8.2544  -8.1560  -7.5114  -7.1415  -7.0456  -6.9846  -6.6148  -6.0380
    -5.9442  -5.9439  -5.8783  -5.5124  -4.9459  -4.9449  -4.8521  -4.7855
    -4.4265  -4.4110  -3.8650  -3.6907  -3.3570  -3.3524  -3.3265  -2.4109
    -2.3293  -2.2669  -2.0354  -1.9943  -1.7402  -1.7393  -1.3486  -1.2077
    -1.2004  -1.0570  -0.9943  -0.6752  -0.4546  -0.4426  -0.1363  -0.0416
     0.2202   0.3595   0.3812   0.4947   0.7049   0.8554   0.8661   1.0156
     1.0861   1.1112   1.1411   1.2017   1.3989   1.4111   1.4450   1.5054

          k = 0.3750 0.7939 0.0000 (193030 PWs)   bands (ev):

   -53.6283 -25.5615 -25.5441 -25.5421  -9.3380  -8.9641  -8.9632  -8.5903
    -8.3165  -7.9465  -7.9420  -7.5731  -6.7387  -6.6764  -6.3714  -6.3129
    -6.3017  -5.9395  -5.7331  -5.6396  -5.3686  -5.2754  -4.6438  -4.4804
    -4.2832  -4.1339  -4.1126  -4.0997  -3.7660  -3.7455  -3.0584  -2.7104
    -2.1208  -1.9837  -1.7758  -1.7284  -1.6710  -1.4489  -1.3899  -1.1436
    -1.0338  -0.9503  -0.6008  -0.5759  -0.2469  -0.0039   0.0540   0.1696
     0.3249   0.3540   0.4659   0.5096   0.6912   0.7556   0.8651   0.9366
     0.9825   1.0502   1.1366   1.4397   1.4620   1.4845   1.5014   1.6073

          k = 0.3750-0.7939 0.0000 (193030 PWs)   bands (ev):

   -53.6283 -25.5615 -25.5441 -25.5421  -9.3380  -8.9641  -8.9632  -8.5903
    -8.3165  -7.9465  -7.9420  -7.5731  -6.7387  -6.6764  -6.3714  -6.3129
    -6.3017  -5.9395  -5.7331  -5.6396  -5.3686  -5.2754  -4.6438  -4.4804
    -4.2832  -4.1339  -4.1126  -4.0997  -3.7660  -3.7455  -3.0584  -2.7104
    -2.1208  -1.9837  -1.7758  -1.7284  -1.6710  -1.4489  -1.3899  -1.1436
    -1.0338  -0.9503  -0.6008  -0.5759  -0.2469  -0.0039   0.0540   0.1696
     0.3249   0.3540   0.4659   0.5096   0.6912   0.7556   0.8651   0.9366
     0.9825   1.0502   1.1366   1.4397   1.4620   1.4845   1.5014   1.6073

          k = 0.3750-0.6495 0.0000 (193025 PWs)   bands (ev):

   -53.6283 -25.5615 -25.5441 -25.5421  -9.6506  -9.2754  -8.6274  -8.5283
    -8.2544  -8.1560  -7.5114  -7.1415  -7.0456  -6.9846  -6.6148  -6.0380
    -5.9442  -5.9439  -5.8783  -5.5124  -4.9459  -4.9449  -4.8521  -4.7855
    -4.4265  -4.4110  -3.8650  -3.6907  -3.3570  -3.3524  -3.3265  -2.4109
    -2.3293  -2.2669  -2.0354  -1.9943  -1.7402  -1.7393  -1.3486  -1.2077
    -1.2004  -1.0570  -0.9943  -0.6752  -0.4546  -0.4426  -0.1363  -0.0416
     0.2202   0.3595   0.3812   0.4947   0.7049   0.8554   0.8661   1.0156
     1.0861   1.1112   1.1411   1.2017   1.3989   1.4111   1.4450   1.5054

          k = 0.3750-0.5052 0.0000 (192945 PWs)   bands (ev):

   -53.6283 -25.5615 -25.5441 -25.5421  -9.9012  -9.5254  -8.8766  -8.5029
    -8.0323  -7.6614  -7.2917  -7.2320  -7.0183  -6.8613  -6.6498  -6.2823
    -6.1880  -5.4579  -5.3908  -5.1876  -5.0378  -5.0203  -4.6687  -4.6542
    -4.4640  -4.3707  -3.5907  -3.3934  -3.2141  -2.9392  -2.9088  -2.8634
    -2.6444  -2.5846  -2.4994  -2.2702  -2.1220  -1.9732  -1.6773  -1.6313
    -1.4302  -0.8978  -0.6865  -0.6671  -0.5721  -0.3569  -0.3266  -0.2388
    -0.2104  -0.0009   0.1034   0.1553   0.3564   0.4861   0.6101   0.6343
     0.7448   0.9716   0.9911   1.2136   1.2810   1.4038   1.5702   1.7770

          k = 0.3750-0.3608 0.0000 (192896 PWs)   bands (ev):

   -53.6283 -25.5615 -25.5441 -25.5421 -10.0895  -9.7131  -9.0638  -8.6896
    -7.4771  -7.4759  -7.4177  -7.1071  -7.0464  -6.4681  -6.4637  -6.3714
    -6.0993  -5.3695  -5.2171  -4.9137  -4.8577  -4.8391  -4.8363  -4.4837
    -3.9294  -3.8635  -3.8006  -3.7694  -3.4753  -2.8959  -2.8496  -2.8258
    -2.6876  -2.6724  -2.6416  -2.4507  -2.3690  -2.2011  -2.1489  -1.6026
    -1.5096  -1.2918  -0.9074  -0.8431  -0.8118  -0.5432  -0.5050  -0.2965
    -0.1924  -0.0576  -0.0273  -0.0132   0.1457   0.2537   0.3173   0.5898
     0.6345   0.7977   0.8082   0.8254   1.1302   1.2358   1.3141   1.3535

          k = 0.3750-0.2165 0.0000 (192883 PWs)   bands (ev):

   -53.6283 -25.5615 -25.5441 -25.5420 -10.2151  -9.8384  -9.1888  -8.8143
    -7.5999  -7.5418  -7.1702  -6.8614  -6.5885  -6.4942  -6.4933  -5.8553
    -5.4934  -5.4885  -5.3401  -4.9739  -4.9590  -4.6720  -4.3415  -4.2827
    -4.2431  -3.8944  -3.8836  -3.6906  -3.3651  -3.3231  -3.2366  -2.9437
    -2.7943  -2.5669  -2.4105  -2.2677  -2.2656  -2.1410  -1.9683  -1.9631
    -1.7255  -1.7113  -1.3675  -1.0581  -0.9671  -0.9512  -0.6406  -0.5849
    -0.3080  -0.1380  -0.0599   0.1081   0.1946   0.3610   0.4338   0.4774
     0.4876   0.6049   0.6830   0.6967   0.7182   0.9153   1.0195   1.5305

          k = 0.3750-0.0722 0.0000 (192872 PWs)   bands (ev):

   -53.6283 -25.5615 -25.5441 -25.5420 -10.2779  -9.9011  -9.2513  -8.8766
    -7.6616  -7.6038  -7.2320  -6.6498  -6.5550  -6.1881  -5.8226  -5.5518
    -5.4580  -5.4023  -5.1872  -5.0950  -5.0349  -5.0201  -4.8257  -4.4641
    -4.1090  -3.9488  -3.6550  -3.5908  -3.2616  -3.0054  -2.9418  -2.9058
    -2.8537  -2.8180  -2.6254  -2.5846  -2.3791  -2.3250  -1.9831  -1.9733
    -1.7769  -1.6312  -1.4317  -1.0212  -0.9868  -0.9058  -0.7019  -0.6659
    -0.5772  -0.3600  -0.2208  -0.1997  -0.1816   0.0964   0.1427   0.4255
     0.6270   0.6503   0.7421   0.9470   0.9855   1.1553   1.3045   1.4061

          k = 0.4583 0.0722 0.0000 (192888 PWs)   bands (ev):

   -53.6283 -25.5615 -25.5441 -25.5420 -10.1733 -10.0474  -9.1472  -9.0222
    -7.5008  -7.3764  -7.3120  -6.9432  -6.3029  -6.0866  -5.9645  -5.9367
    -5.3572  -5.3015  -5.2357  -5.1714  -5.0863  -4.9659  -4.6840  -4.3649
    -4.3245  -4.2461  -3.4961  -3.3841  -3.3220  -2.9829  -2.9119  -2.8010
    -2.7611  -2.7452  -2.6223  -2.5439  -2.2910  -2.2639  -2.2398  -1.9540
    -1.7239  -1.5605  -1.5321  -1.0548  -0.9574  -0.8855  -0.7131  -0.5754
    -0.5546  -0.3489  -0.2626  -0.1884  -0.1502   0.0594   0.0833   0.1325
     0.2771   0.4145   0.9597   1.0114   1.0452   1.1790   1.4323   1.5821

          k = 0.4583 0.2165 0.0000 (192855 PWs)   bands (ev):

   -53.6283 -25.5615 -25.5441 -25.5420 -10.1105  -9.9846  -9.0847  -8.9598
    -7.4388  -7.3145  -7.2504  -6.8818  -6.7593  -6.6364  -6.2417  -5.8758
    -5.7539  -5.6324  -5.2393  -5.1094  -4.6236  -4.5723  -4.4531  -4.2644
    -4.1444  -4.0258  -3.9716  -3.6332  -3.5724  -3.4762  -3.0200  -2.8506
    -2.6987  -2.6891  -2.4853  -2.2060  -2.1068  -2.0844  -1.9775  -1.9418
    -1.6304  -1.5014  -1.3841  -1.1925  -0.9961  -0.9105  -0.6942  -0.5034
    -0.3874  -0.2792  -0.0945   0.1165   0.1896   0.2298   0.3322   0.3572
     0.4187   0.5409   0.8152   0.8457   1.0204   1.0244   1.0679   1.1773

          k = 0.4583 0.3608 0.0000 (192914 PWs)   bands (ev):

   -53.6283 -25.5615 -25.5441 -25.5421  -9.9850  -9.8592  -8.9598  -8.8350
    -7.3739  -7.3149  -7.2504  -7.1906  -7.1274  -6.7591  -6.3640  -6.2417
    -6.1195  -5.7539  -5.1164  -4.9866  -4.7441  -4.6236  -4.5721  -4.5026
    -4.2128  -4.1440  -3.7323  -3.6331  -3.5724  -3.2385  -2.7855  -2.7386
    -2.6929  -2.5964  -2.5721  -2.4831  -2.3675  -2.0890  -1.9770  -1.7125
    -1.3840  -0.9965  -0.9623  -0.9098  -0.8794  -0.7072  -0.3891  -0.2395
    -0.1035  -0.0944   0.0217   0.1841   0.2280   0.2405   0.3089   0.4377
     0.4606   0.4661   0.7445   1.0194   1.1348   1.1774   1.4548   1.6377

          k = 0.4583 0.5052 0.0000 (192934 PWs)   bands (ev):

   -53.6283 -25.5615 -25.5441 -25.5421  -9.7968  -9.6713  -8.7727  -8.6481
    -7.9293  -7.8054  -7.1293  -7.0054  -6.9430  -6.9157  -6.7929  -6.5752
    -5.9364  -5.5714  -5.2899  -5.1683  -5.1143  -4.9304  -4.8015  -4.7518
    -4.3222  -4.1247  -3.9643  -3.7674  -3.1188  -2.9958  -2.8465  -2.7462
    -2.5730  -2.5460  -2.3979  -2.2907  -2.1928  -1.9159  -1.7684  -1.7190
    -1.2091  -0.8241  -0.7059  -0.7031  -0.3547  -0.2649  -0.2146  -0.0486
    -0.0156  -0.0031   0.0448   0.1893   0.2873   0.4074   0.4828   0.5529
     0.6167   0.9408   1.0005   1.2493   1.3027   1.3343   1.5080   1.8220

          k = 0.4583 0.6495 0.0000 (193044 PWs)   bands (ev):

   -53.6283 -25.5615 -25.5441 -25.5421  -9.5464  -9.4211  -8.5237  -8.4249
    -8.3993  -8.3005  -7.4085  -7.2852  -6.8821  -6.7584  -6.6976  -6.3305
    -5.7771  -5.6926  -5.6544  -5.5991  -5.3284  -5.2351  -4.6860  -4.6032
    -4.5566  -4.2433  -4.0821  -3.7256  -3.5926  -3.4670  -3.0223  -2.6788
    -2.3173  -2.1620  -1.9635  -1.9137  -1.8198  -1.6882  -1.2625  -1.1166
    -1.0787  -1.0342  -0.9789  -0.4798  -0.4662  -0.4274   0.0038   0.1031
     0.2368   0.3946   0.5393   0.6206   0.6319   0.7103   0.7635   0.7897
     0.8500   0.9964   1.2671   1.3544   1.4035   1.4485   1.5245   1.5369

          k = 0.4583 0.7939 0.0000 (193019 PWs)   bands (ev):

   -53.6283 -25.5615 -25.5441 -25.5421  -9.2340  -9.1089  -8.8600  -8.7352
    -8.2130  -8.0889  -7.8411  -7.7173  -6.5742  -6.4508  -6.3915  -6.2051
    -6.0823  -6.0252  -6.0251  -5.6599  -5.3888  -5.0259  -5.0252  -4.6636
    -4.3809  -4.2523  -4.0135  -3.8870  -3.7831  -3.4285  -3.4279  -3.0763
    -2.0283  -1.8701  -1.6917  -1.6574  -1.5172  -1.4151  -1.4110  -1.2024
    -0.7900  -0.7067  -0.7056  -0.3569  -0.2162   0.0886   0.0893   0.2159
     0.2396   0.3724   0.3908   0.5145   0.6638   0.7782   0.8917   0.9261
     1.0086   1.0724   1.0789   1.1553   1.3178   1.3227   1.3487   1.5526

          k = 0.4583-0.7939 0.0000 (193019 PWs)   bands (ev):

   -53.6283 -25.5615 -25.5441 -25.5421  -9.2340  -9.1089  -8.8600  -8.7352
    -8.2130  -8.0889  -7.8411  -7.7173  -6.5742  -6.4508  -6.3915  -6.2051
    -6.0823  -6.0252  -6.0251  -5.6599  -5.3888  -5.0259  -5.0252  -4.6636
    -4.3809  -4.2523  -4.0135  -3.8870  -3.7831  -3.4285  -3.4279  -3.0763
    -2.0283  -1.8701  -1.6917  -1.6574  -1.5172  -1.4151  -1.4110  -1.2024
    -0.7900  -0.7067  -0.7056  -0.3569  -0.2162   0.0886   0.0893   0.2159
     0.2396   0.3724   0.3908   0.5145   0.6638   0.7782   0.8917   0.9261
     1.0086   1.0724   1.0789   1.1553   1.3178   1.3227   1.3487   1.5526

          k = 0.4583-0.6495 0.0000 (193044 PWs)   bands (ev):

   -53.6283 -25.5615 -25.5441 -25.5421  -9.5464  -9.4211  -8.5237  -8.4249
    -8.3993  -8.3005  -7.4085  -7.2852  -6.8821  -6.7584  -6.6976  -6.3305
    -5.7771  -5.6926  -5.6544  -5.5991  -5.3284  -5.2351  -4.6860  -4.6032
    -4.5566  -4.2433  -4.0821  -3.7256  -3.5926  -3.4670  -3.0223  -2.6788
    -2.3173  -2.1620  -1.9635  -1.9137  -1.8198  -1.6882  -1.2625  -1.1166
    -1.0787  -1.0342  -0.9789  -0.4798  -0.4662  -0.4274   0.0038   0.1031
     0.2368   0.3946   0.5393   0.6206   0.6319   0.7103   0.7635   0.7897
     0.8500   0.9964   1.2671   1.3544   1.4035   1.4485   1.5245   1.5369

[...]

     atom    1 type  1   force =     0.00001242   -0.00000000   -0.00163979
     atom    2 type  1   force =     0.00088402   -0.00000000   -0.00399717
     atom    3 type  1   force =    -0.00069245   -0.00000000    0.00449476
     atom    4 type  1   force =    -0.00007580   -0.00000000    0.00101281
     atom    5 type  1   force =     0.00073571   -0.00000000    0.00463377
     atom    6 type  1   force =     0.00003069    0.00000000    0.00328055
     atom    7 type  1   force =    -0.00081967    0.00000000   -0.00430979
     atom    8 type  1   force =    -0.00004440    0.00012162    0.00457192
     atom    9 type  1   force =     0.00070027   -0.00037663    0.00221581
     atom   10 type  1   force =    -0.00029689   -0.00002834   -0.00353172
     atom   11 type  1   force =     0.00047237    0.00003956   -0.00488596
     atom   12 type  1   force =     0.00037495    0.00024818   -0.00469068
     atom   13 type  1   force =    -0.00023495    0.00023962   -0.00492033
     atom   14 type  1   force =    -0.00099160   -0.00008076    0.00247954
     atom   15 type  1   force =     0.00032619    0.00041740    0.00299744
     atom   16 type  1   force =    -0.00004440   -0.00012162    0.00457192
     atom   17 type  1   force =     0.00070027    0.00037663    0.00221581
     atom   18 type  1   force =    -0.00029689    0.00002834   -0.00353172
     atom   19 type  1   force =     0.00047237   -0.00003956   -0.00488596
     atom   20 type  1   force =     0.00037495   -0.00024818   -0.00469068
     atom   21 type  1   force =    -0.00023495   -0.00023962   -0.00492033
     atom   22 type  1   force =    -0.00099160    0.00008076    0.00247954
     atom   23 type  1   force =     0.00032619   -0.00041740    0.00299743
     atom   24 type  1   force =     0.00005753    0.00000000    0.00455261
     atom   25 type  1   force =     0.00041654    0.00000000    0.00319691
     atom   26 type  1   force =    -0.00075322    0.00000000   -0.00458204
     atom   27 type  1   force =    -0.00057311    0.00000000   -0.00813148
     atom   28 type  1   force =     0.00053784    0.00000000   -0.00373182
     atom   29 type  1   force =     0.00023158    0.00000000   -0.00198175
     atom   30 type  1   force =     0.00005823    0.00000000    0.00159851
     atom   31 type  1   force =    -0.00064783   -0.00000000    0.00306948
     atom   32 type  1   force =    -0.00001994   -0.00000000    0.01509049
     atom   33 type  2   force =     0.00000558   -0.00000000   -0.00102810
     The non-local contrib.  to forces
     atom    1 type  1   force =     0.00034711   -0.00000000   -0.03706083
     atom    2 type  1   force =    -0.00148476   -0.00000000   -0.00353577
     atom    3 type  1   force =     0.00096140   -0.00000000    0.00661053
     atom    4 type  1   force =    -0.00016378   -0.00000000    0.03820806
     atom    5 type  1   force =    -0.00084002   -0.00000000    0.00756770
     atom    6 type  1   force =     0.00002158    0.00000000    0.04194664
     atom    7 type  1   force =     0.00122518    0.00000000   -0.00505942
     atom    8 type  1   force =     0.00164191    0.00021450    0.00740593
     atom    9 type  1   force =     0.00012417    0.00004497    0.03979887
     atom   10 type  1   force =    -0.00026125    0.00049274   -0.00394210
     atom   11 type  1   force =    -0.00066805   -0.00032890   -0.03884394
     atom   12 type  1   force =     0.00006658   -0.00019209   -0.00610263
     atom   13 type  1   force =     0.00028180   -0.00052982   -0.03801663
     atom   14 type  1   force =    -0.00028914    0.00002041    0.03908738
     atom   15 type  1   force =    -0.00136107    0.00010969    0.00383294
     atom   16 type  1   force =     0.00164191   -0.00021450    0.00740593
     atom   17 type  1   force =     0.00012417   -0.00004497    0.03979887
     atom   18 type  1   force =    -0.00026125   -0.00049274   -0.00394210
     atom   19 type  1   force =    -0.00066805    0.00032890   -0.03884394
     atom   20 type  1   force =     0.00006658    0.00019209   -0.00610263
     atom   21 type  1   force =     0.00028180    0.00052982   -0.03801663
     atom   22 type  1   force =    -0.00028914   -0.00002041    0.03908738
     atom   23 type  1   force =    -0.00136107   -0.00010969    0.00383294
     atom   24 type  1   force =    -0.00147708    0.00000000    0.00719811
     atom   25 type  1   force =    -0.00031781    0.00000000    0.04096534
     atom   26 type  1   force =     0.00029288    0.00000000   -0.00567495
     atom   27 type  1   force =     0.00008619    0.00000000   -0.04253684
     atom   28 type  1   force =    -0.00087267   -0.00000000   -0.00427994
     atom   29 type  1   force =     0.00073054   -0.00000000   -0.03658830
     atom   30 type  1   force =     0.00004211   -0.00000000    0.03778562
     atom   31 type  1   force =     0.00138415   -0.00000000    0.00401125
     atom   32 type  1   force =    -0.00015918    0.00000000    0.01156648
     atom   33 type  2   force =    -0.00001387   -0.00000000   -0.33314872
     The ionic contribution  to forces
     atom    1 type  1   force =    -0.00000000   -0.00000000   -8.37606502
     atom    2 type  1   force =    -0.02536111   -0.00000000    3.95345377
     atom    3 type  1   force =     0.11081009   -0.00000000   -1.94142688
     atom    4 type  1   force =    -0.00000006   -0.00000000    9.82567551
     atom    5 type  1   force =    -0.11081017   -0.00000000   -2.04750200
     atom    6 type  1   force =     0.00000077   -0.00000000    9.83912590
     atom    7 type  1   force =     0.02536116    0.00000000    3.92595344
     atom    8 type  1   force =     0.06032958    0.00481562   -2.09630161
     atom    9 type  1   force =    -0.00667348    0.00006960    9.83234840
     atom   10 type  1   force =     0.01487576    0.00129928    3.96558533
     atom   11 type  1   force =    -0.54905601    0.11523895   -7.97428501
     atom   12 type  1   force =    -0.01443416   -0.00053435    3.91484010
     atom   13 type  1   force =     0.54905516   -0.11523890   -7.97428441
     atom   14 type  1   force =     0.00667272   -0.00006960    9.83234754
     atom   15 type  1   force =    -0.06886813   -0.01960496   -1.87323836
     atom   16 type  1   force =     0.06032958   -0.00481562   -2.09630161
     atom   17 type  1   force =    -0.00667348   -0.00006960    9.83234840
     atom   18 type  1   force =     0.01487576   -0.00129928    3.96558533
     atom   19 type  1   force =    -0.54905601   -0.11523895   -7.97428501
     atom   20 type  1   force =    -0.01443416    0.00053435    3.91484010
     atom   21 type  1   force =     0.54905516    0.11523890   -7.97428441
     atom   22 type  1   force =     0.00667272    0.00006960    9.83234754
     atom   23 type  1   force =    -0.06886813    0.01960496   -1.87323836
     atom   24 type  1   force =    -0.10383394   -0.00000000   -2.06024273
     atom   25 type  1   force =     0.00000077   -0.00000000    9.83893237
     atom   26 type  1   force =     0.02495071    0.00000000    3.92466820
     atom   27 type  1   force =     0.00000071   -0.00000000   -7.59590775
     atom   28 type  1   force =    -0.02583392   -0.00000000    3.95575694
     atom   29 type  1   force =    -0.00000000   -0.00000000   -8.35266187
     atom   30 type  1   force =    -0.00000006    0.00000000    9.82576353
     atom   31 type  1   force =     0.12091112    0.00000000   -1.90929750
     atom   32 type  1   force =     0.00000071    0.00000000   -6.74874263
     atom   33 type  2   force =     0.00000032   -0.00000000  -31.31150724
     The local contribution  to forces
     atom    1 type  1   force =    -0.00031811   -0.00000000    8.39703169
     atom    2 type  1   force =     0.02763045   -0.00000000   -3.96435616
     atom    3 type  1   force =    -0.11239563   -0.00000000    1.92940859
     atom    4 type  1   force =     0.00007519   -0.00000000   -9.86887668
     atom    5 type  1   force =     0.11232520    0.00000000    2.03473094
     atom    6 type  1   force =     0.00001217    0.00000000   -9.88353972
     atom    7 type  1   force =    -0.02732469    0.00000000   -3.93574822
     atom    8 type  1   force =    -0.06191286   -0.00489510    2.08361932
     atom    9 type  1   force =     0.00726528   -0.00048732   -9.87582359
     atom   10 type  1   force =    -0.01492779   -0.00178752   -3.97565329
     atom   11 type  1   force =     0.55015859   -0.11489176    7.99366431
     atom   12 type  1   force =     0.01474450    0.00096010   -3.92403582
     atom   13 type  1   force =    -0.54956123    0.11597105    7.99285920
     atom   14 type  1   force =    -0.00740065   -0.00002930   -9.87489829
     atom   15 type  1   force =     0.07046849    0.01991513    1.86234011
     atom   16 type  1   force =    -0.06191286    0.00489510    2.08361932
     atom   17 type  1   force =     0.00726528    0.00048732   -9.87582359
     atom   18 type  1   force =    -0.01492779    0.00178752   -3.97565329
     atom   19 type  1   force =     0.55015859    0.11489176    7.99366431
     atom   20 type  1   force =     0.01474450   -0.00096010   -3.92403582
     atom   21 type  1   force =    -0.54956123   -0.11597105    7.99285920
     atom   22 type  1   force =    -0.00740065    0.00002930   -9.87489829
     atom   23 type  1   force =     0.07046849   -0.01991513    1.86234011
     atom   24 type  1   force =     0.10527098   -0.00000000    2.04773661
     atom   25 type  1   force =     0.00071219   -0.00000000   -9.88251089
     atom   26 type  1   force =    -0.02597971   -0.00000000   -3.93415740
     atom   27 type  1   force =    -0.00064429   -0.00000000    7.61547730
     atom   28 type  1   force =     0.02719025    0.00000000   -3.96570574
     atom   29 type  1   force =    -0.00045897    0.00000000    8.37284795
     atom   30 type  1   force =     0.00001766    0.00000000   -9.86798367
     atom   31 type  1   force =    -0.12284515   -0.00000000    1.89830299
     atom   32 type  1   force =     0.00013462   -0.00000000    6.74146201
     atom   33 type  2   force =     0.00002635    0.00000000   31.61280724
     The core correction contribution to forces
     atom    1 type  1   force =    -0.00002266    0.00000000    0.00419039
     atom    2 type  1   force =     0.00010384   -0.00000000    0.00016926
     atom    3 type  1   force =    -0.00006591    0.00000000   -0.00036507
     atom    4 type  1   force =     0.00001146   -0.00000000   -0.00426447
     atom    5 type  1   force =     0.00005844    0.00000000   -0.00042913
     atom    6 type  1   force =    -0.00000253    0.00000000   -0.00452374
     atom    7 type  1   force =    -0.00008580   -0.00000000    0.00026770
     atom    8 type  1   force =    -0.00010865   -0.00001334   -0.00041955
     atom    9 type  1   force =    -0.00001106   -0.00000408   -0.00437744
     atom   10 type  1   force =     0.00001844   -0.00003296    0.00020508
     atom   11 type  1   force =     0.00003831    0.00002143    0.00431360
     atom   12 type  1   force =    -0.00000392    0.00001467    0.00033248
     atom   13 type  1   force =    -0.00001107    0.00003717    0.00425901
     atom   14 type  1   force =     0.00002093   -0.00000207   -0.00432950
     atom   15 type  1   force =     0.00009238   -0.00000254   -0.00020330
     atom   16 type  1   force =    -0.00010865    0.00001334   -0.00041955
     atom   17 type  1   force =    -0.00001106    0.00000408   -0.00437744
     atom   18 type  1   force =     0.00001844    0.00003296    0.00020508
     atom   19 type  1   force =     0.00003831   -0.00002143    0.00431360
     atom   20 type  1   force =    -0.00000392   -0.00001467    0.00033248
     atom   21 type  1   force =    -0.00001107   -0.00003717    0.00425901
     atom   22 type  1   force =     0.00002093    0.00000207   -0.00432950
     atom   23 type  1   force =     0.00009238    0.00000254   -0.00020330
     atom   24 type  1   force =     0.00009532   -0.00000000   -0.00040579
     atom   25 type  1   force =     0.00002269   -0.00000000   -0.00446133
     atom   26 type  1   force =    -0.00002159   -0.00000000    0.00030526
     atom   27 type  1   force =    -0.00000972   -0.00000000    0.00457222
     atom   28 type  1   force =     0.00005857    0.00000000    0.00022534
     atom   29 type  1   force =    -0.00004610    0.00000000    0.00415645
     atom   30 type  1   force =    -0.00000286    0.00000000   -0.00423745
     atom   31 type  1   force =    -0.00009555   -0.00000000   -0.00021472
     atom   32 type  1   force =     0.00000996   -0.00000000    0.00054108
     atom   33 type  2   force =     0.00000000    0.00000000    0.00000000
     The Hubbard contrib.    to forces
     atom    1 type  1   force =     0.00000000    0.00000000    0.00000000
     atom    2 type  1   force =     0.00000000    0.00000000    0.00000000
     atom    3 type  1   force =     0.00000000    0.00000000    0.00000000
     atom    4 type  1   force =     0.00000000    0.00000000    0.00000000
     atom    5 type  1   force =     0.00000000    0.00000000    0.00000000
     atom    6 type  1   force =     0.00000000    0.00000000    0.00000000
     atom    7 type  1   force =     0.00000000    0.00000000    0.00000000
     atom    8 type  1   force =     0.00000000    0.00000000    0.00000000
     atom    9 type  1   force =     0.00000000    0.00000000    0.00000000
     atom   10 type  1   force =     0.00000000    0.00000000    0.00000000
     atom   11 type  1   force =     0.00000000    0.00000000    0.00000000
     atom   12 type  1   force =     0.00000000    0.00000000    0.00000000
     atom   13 type  1   force =     0.00000000    0.00000000    0.00000000
     atom   14 type  1   force =     0.00000000    0.00000000    0.00000000
     atom   15 type  1   force =     0.00000000    0.00000000    0.00000000
     atom   16 type  1   force =     0.00000000    0.00000000    0.00000000
     atom   17 type  1   force =     0.00000000    0.00000000    0.00000000
     atom   18 type  1   force =     0.00000000    0.00000000    0.00000000
     atom   19 type  1   force =     0.00000000    0.00000000    0.00000000
     atom   20 type  1   force =     0.00000000    0.00000000    0.00000000
     atom   21 type  1   force =     0.00000000    0.00000000    0.00000000
     atom   22 type  1   force =     0.00000000    0.00000000    0.00000000
     atom   23 type  1   force =     0.00000000    0.00000000    0.00000000
     atom   24 type  1   force =     0.00000000    0.00000000    0.00000000
     atom   25 type  1   force =     0.00000000    0.00000000    0.00000000
     atom   26 type  1   force =     0.00000000    0.00000000    0.00000000
     atom   27 type  1   force =     0.00000000    0.00000000    0.00000000
     atom   28 type  1   force =     0.00000000    0.00000000    0.00000000
     atom   29 type  1   force =     0.00000000    0.00000000    0.00000000
     atom   30 type  1   force =     0.00000000    0.00000000    0.00000000
     atom   31 type  1   force =     0.00000000    0.00000000    0.00000000
     atom   32 type  1   force =     0.00000000    0.00000000    0.00000000
     atom   33 type  2   force =     0.00000000    0.00000000    0.00000000
     The SCF correction term to forces
     atom    1 type  1   force =     0.00000608    0.00000000   -0.00000056
     atom    2 type  1   force =    -0.00000439    0.00000000    0.00000720
     atom    3 type  1   force =    -0.00000240    0.00000000    0.00000306
     atom    4 type  1   force =     0.00000139    0.00000000    0.00000586
     atom    5 type  1   force =     0.00000227   -0.00000000    0.00000173
     atom    6 type  1   force =    -0.00000129   -0.00000000    0.00000693
     atom    7 type  1   force =     0.00000449   -0.00000000    0.00001218
     atom    8 type  1   force =     0.00000562   -0.00000007    0.00000329
     atom    9 type  1   force =    -0.00000463    0.00000020    0.00000504
     atom   10 type  1   force =    -0.00000205    0.00000013    0.00000873
     atom   11 type  1   force =    -0.00000047   -0.00000017    0.00000053
     atom   12 type  1   force =     0.00000195   -0.00000014    0.00001066
     atom   13 type  1   force =     0.00000040    0.00000012   -0.00000203
     atom   14 type  1   force =     0.00000454   -0.00000019    0.00000788
     atom   15 type  1   force =    -0.00000548    0.00000009    0.00000150
     atom   16 type  1   force =     0.00000562    0.00000007    0.00000329
     atom   17 type  1   force =    -0.00000463   -0.00000020    0.00000504
     atom   18 type  1   force =    -0.00000205   -0.00000013    0.00000873
     atom   19 type  1   force =    -0.00000047    0.00000017    0.00000053
     atom   20 type  1   force =     0.00000195    0.00000014    0.00001066
     atom   21 type  1   force =     0.00000040   -0.00000012   -0.00000203
     atom   22 type  1   force =     0.00000454    0.00000019    0.00000788
     atom   23 type  1   force =    -0.00000548   -0.00000009    0.00000150
     atom   24 type  1   force =     0.00000225    0.00000000    0.00000187
     atom   25 type  1   force =    -0.00000130    0.00000000    0.00000689
     atom   26 type  1   force =     0.00000450    0.00000000    0.00001232
     atom   27 type  1   force =    -0.00000600    0.00000000   -0.00000096
     atom   28 type  1   force =    -0.00000438   -0.00000000    0.00000705
     atom   29 type  1   force =     0.00000611   -0.00000000   -0.00000052
     atom   30 type  1   force =     0.00000138   -0.00000000    0.00000595
     atom   31 type  1   force =    -0.00000240   -0.00000000    0.00000293
     atom   32 type  1   force =    -0.00000604   -0.00000000   -0.00000099
     atom   33 type  2   force =    -0.00000723   -0.00000000    0.00000111

     Total force =     0.026903     Total SCF correction =     0.000041

     Writing all to output data dir ./temp2/AlwithNa_0D001.save/

     init_run     :     19.77s CPU     13.01s WALL (       1 calls)
     electrons    :    662.22s CPU    418.10s WALL (       1 calls)
     forces       :     10.99s CPU      6.27s WALL (       1 calls)

     Called by init_run:
     wfcinit      :      9.72s CPU      6.03s WALL (       1 calls)
     potinit      :      4.48s CPU      2.43s WALL (       1 calls)
     hinit0       :      5.18s CPU      4.15s WALL (       1 calls)

     Called by electrons:
     c_bands      :    560.58s CPU    361.91s WALL (      34 calls)
     sum_band     :     93.51s CPU     49.14s WALL (      34 calls)
     v_of_rho     :      5.83s CPU      4.85s WALL (      35 calls)
     mix_rho      :      1.91s CPU      1.80s WALL (      34 calls)

     Called by c_bands:
     init_us_2    :     25.22s CPU     12.70s WALL (     420 calls)
     init_us_2:cp :     25.22s CPU     12.70s WALL (     420 calls)
     cegterg      :    463.19s CPU    292.42s WALL (     204 calls)

     Called by *egterg:
     cdiaghg      :      3.47s CPU      3.48s WALL (    1018 calls)
     h_psi        :    418.97s CPU    252.41s WALL (    1024 calls)
     g_psi        :      1.84s CPU      0.93s WALL (     814 calls)

     Called by h_psi:
     h_psi:calbec :     39.86s CPU     34.61s WALL (    1024 calls)
     vloc_psi     :    334.42s CPU    174.81s WALL (    1024 calls)
     add_vuspsi   :     40.97s CPU     41.08s WALL (    1024 calls)

     General routines
     calbec       :     41.27s CPU     35.90s WALL (    1048 calls)
     fft          :      2.84s CPU      2.99s WALL (     360 calls)
     ffts         :      0.17s CPU      0.20s WALL (      34 calls)
     fftw         :    303.15s CPU    159.93s WALL (   84468 calls)

     Parallel routines

     PWSCF        :  11m34.12s CPU   7m19.38s WALL


   This run was terminated on:  21:23:21  20Mar2025            

=------------------------------------------------------------------------------=
   JOB DONE.
=------------------------------------------------------------------------------=
