
     Program PWSCF v.7.2 starts on 20Mar2025 at 21: 8:21 

     This program is part of the open-source Quantum ESPRESSO suite
     for quantum simulation of materials; please cite
         "P. Giannozzi et al., J. Phys.:Condens. Matter 21 395502 (2009);
         "P. Giannozzi et al., J. Phys.:Condens. Matter 29 465901 (2017);
         "P. Giannozzi et al., J. Chem. Phys. 152 154105 (2020);
          URL http://www.quantum-espresso.org", 
     in publications or presentations arising from this work. More details at
     http://www.quantum-espresso.org/quote

     Parallel version (MPI & OpenMP), running on     384 processor cores
     Number of MPI processes:               192
     Threads/MPI process:                     2

     MPI processes distributed on     8 nodes
     733205 MiB available memory on the printing compute node when the environment starts

     Reading input from Al111slabWithNa_0D0Ha.sc.in

     Current dimensions of program PWSCF are:
     Max number of different atomic species (ntypx) = 10
     Max number of k-points (npk) =  40000
     Max angular momentum in pseudopotentials (lmaxx) =  4

     K-points division:     npool     =      12
     R & G space division:  proc/nbgrp/npool/nimage =      16
     Subspace diagonalization in iterative solution of the eigenvalue problem:
     a serial algorithm will be used


     Parallelization info
     --------------------
     sticks:   dense  smooth     PW     G-vecs:    dense   smooth      PW
     Min         401     401    106                96479    96479   13202
     Max         402     402    107                96492    96492   13217
     Sum        6419    6419   1707              1543747  1543747  211325

     Using Slab Decomposition



     bravais-lattice index     =            0
     lattice parameter (alat)  =      18.6834  a.u.
     unit-cell volume          =   11425.3995 (a.u.)^3
     number of atoms/cell      =           33
     number of atomic types    =            2
     number of electrons       =       105.00
     number of Kohn-Sham states=           64
     kinetic-energy cutoff     =     100.0000  Ry
     charge density cutoff     =     400.0000  Ry
     scf convergence threshold =      1.0E-09
     mixing beta               =       0.7000
     number of iterations used =            8  plain     mixing
     Exchange-correlation= PBE
                           (   1   4   3   4   0   0   0)

     celldm(1)=  18.683402  celldm(2)=   0.000000  celldm(3)=   0.000000
     celldm(4)=   0.000000  celldm(5)=   0.000000  celldm(6)=   0.000000

     crystal axes: (cart. coord. in units of alat)
               a(1) = (   1.000000   0.000000   0.000000 )  
               a(2) = (   0.000000   0.577350   0.000000 )  
               a(3) = (   0.000000   0.000000   3.034340 )  

     reciprocal axes: (cart. coord. in units 2 pi/alat)
               b(1) = (  1.000000  0.000000  0.000000 )  
               b(2) = (  0.000000  1.732051  0.000000 )  
               b(3) = (  0.000000  0.000000  0.329561 )  


     PseudoPot. # 1 for Al read from file:
     ./Al.upf
     MD5 check sum: a92309766db89a6b54a5f8790cc4d69e
     Pseudo is Norm-conserving + core correction, Zval =  3.0
     Generated using ONCVPSP code by D. R. Hamann
     Using radial grid of 1876 points,  6 beta functions with: 
                l(1) =   0
                l(2) =   0
                l(3) =   1
                l(4) =   1
                l(5) =   2
                l(6) =   2

     PseudoPot. # 2 for Na read from file:
     ./Na.upf
     MD5 check sum: ed5af011864af3d1529ce3b51bbccf87
     Pseudo is Norm-conserving, Zval =  9.0
     Generated using ONCVPSP code by D. R. Hamann
     Using radial grid of 1992 points,  4 beta functions with: 
                l(1) =   0
                l(2) =   0
                l(3) =   1
                l(4) =   1

     atomic species   valence    mass     pseudopotential
        Al             3.00    26.00000     Al( 1.00)
        Na             9.00    23.00000     Na( 1.00)

     No symmetry found



   Cartesian axes

     site n.     atom                  positions (alat units)
         1           Al  tau(   1) = (   0.0000000   0.0000000   1.1636163  )
         2           Al  tau(   2) = (   0.3333333   0.0000000   1.6350208  )
         3           Al  tau(   3) = (   0.6666666   0.0000000   1.3993186  )
         4           Al  tau(   4) = (   0.0000000   0.0000000   1.8707232  )
         5           Al  tau(   5) = (   0.1666667   0.2886751   1.3993186  )
         6           Al  tau(   6) = (   0.5000000   0.2886751   1.8707232  )
         7           Al  tau(   7) = (   0.8333333   0.2886751   1.6350208  )
         8           Al  tau(   8) = (   0.9166667   0.4330127   1.3993186  )
         9           Al  tau(   9) = (   0.2500001   0.4330127   1.8707232  )
        10           Al  tau(  10) = (   0.5833333   0.4330127   1.6350208  )
        11           Al  tau(  11) = (   0.2500001   0.4330127   1.1636163  )
        12           Al  tau(  12) = (   0.0833334   0.1443376   1.6350208  )
        13           Al  tau(  13) = (   0.7500000   0.1443376   1.1636163  )
        14           Al  tau(  14) = (   0.7500000   0.1443376   1.8707232  )
        15           Al  tau(  15) = (   0.4166666   0.1443376   1.3993186  )
        16           Al  tau(  16) = (   0.9166667   0.1443376   1.3993186  )
        17           Al  tau(  17) = (   0.2500001   0.1443376   1.8707232  )
        18           Al  tau(  18) = (   0.5833333   0.1443376   1.6350208  )
        19           Al  tau(  19) = (   0.2500001   0.1443376   1.1636163  )
        20           Al  tau(  20) = (   0.0833334   0.4330127   1.6350208  )
        21           Al  tau(  21) = (   0.7500000   0.4330127   1.1636163  )
        22           Al  tau(  22) = (   0.7500000   0.4330127   1.8707232  )
        23           Al  tau(  23) = (   0.4166666   0.4330127   1.3993186  )
        24           Al  tau(  24) = (   0.1666667   0.0000000   1.3993186  )
        25           Al  tau(  25) = (   0.5000000   0.0000000   1.8707232  )
        26           Al  tau(  26) = (   0.8333333   0.0000000   1.6350208  )
        27           Al  tau(  27) = (   0.5000000   0.0000000   1.1636163  )
        28           Al  tau(  28) = (   0.3333333   0.2886751   1.6350208  )
        29           Al  tau(  29) = (   0.0000000   0.2886751   1.1636163  )
        30           Al  tau(  30) = (   0.0000000   0.2886751   1.8707232  )
        31           Al  tau(  31) = (   0.6666666   0.2886751   1.3993186  )
        32           Al  tau(  32) = (   0.5000000   0.2886751   1.1636163  )
        33           Na  tau(  33) = (   0.5000000   0.2886751   0.8799585  )

     number of k points=    72  Fermi-Dirac smearing, width (Ry)=  0.0032
                       cart. coord. in units 2pi/alat
        k(    1) = (   0.0416667   0.0721688   0.0000000), wk =   0.0277778
        k(    2) = (   0.0416667   0.2165063   0.0000000), wk =   0.0277778
        k(    3) = (   0.0416667   0.3608439   0.0000000), wk =   0.0277778
        k(    4) = (   0.0416667   0.5051815   0.0000000), wk =   0.0277778
        k(    5) = (   0.0416667   0.6495190   0.0000000), wk =   0.0277778
        k(    6) = (   0.0416667   0.7938566   0.0000000), wk =   0.0277778
        k(    7) = (   0.0416667  -0.7938566   0.0000000), wk =   0.0277778
        k(    8) = (   0.0416667  -0.6495190   0.0000000), wk =   0.0277778
        k(    9) = (   0.0416667  -0.5051815   0.0000000), wk =   0.0277778
        k(   10) = (   0.0416667  -0.3608439   0.0000000), wk =   0.0277778
        k(   11) = (   0.0416667  -0.2165063   0.0000000), wk =   0.0277778
        k(   12) = (   0.0416667  -0.0721688   0.0000000), wk =   0.0277778
        k(   13) = (   0.1250000   0.0721688   0.0000000), wk =   0.0277778
        k(   14) = (   0.1250000   0.2165063   0.0000000), wk =   0.0277778
        k(   15) = (   0.1250000   0.3608439   0.0000000), wk =   0.0277778
        k(   16) = (   0.1250000   0.5051815   0.0000000), wk =   0.0277778
        k(   17) = (   0.1250000   0.6495190   0.0000000), wk =   0.0277778
        k(   18) = (   0.1250000   0.7938566   0.0000000), wk =   0.0277778
        k(   19) = (   0.1250000  -0.7938566   0.0000000), wk =   0.0277778
        k(   20) = (   0.1250000  -0.6495190   0.0000000), wk =   0.0277778
        k(   21) = (   0.1250000  -0.5051815   0.0000000), wk =   0.0277778
        k(   22) = (   0.1250000  -0.3608439   0.0000000), wk =   0.0277778
        k(   23) = (   0.1250000  -0.2165063   0.0000000), wk =   0.0277778
        k(   24) = (   0.1250000  -0.0721688   0.0000000), wk =   0.0277778
        k(   25) = (   0.2083333   0.0721688   0.0000000), wk =   0.0277778
        k(   26) = (   0.2083333   0.2165063   0.0000000), wk =   0.0277778
        k(   27) = (   0.2083333   0.3608439   0.0000000), wk =   0.0277778
        k(   28) = (   0.2083333   0.5051815   0.0000000), wk =   0.0277778
        k(   29) = (   0.2083333   0.6495190   0.0000000), wk =   0.0277778
        k(   30) = (   0.2083333   0.7938566   0.0000000), wk =   0.0277778
        k(   31) = (   0.2083333  -0.7938566   0.0000000), wk =   0.0277778
        k(   32) = (   0.2083333  -0.6495190   0.0000000), wk =   0.0277778
        k(   33) = (   0.2083333  -0.5051815   0.0000000), wk =   0.0277778
        k(   34) = (   0.2083333  -0.3608439   0.0000000), wk =   0.0277778
        k(   35) = (   0.2083333  -0.2165063   0.0000000), wk =   0.0277778
        k(   36) = (   0.2083333  -0.0721688   0.0000000), wk =   0.0277778
        k(   37) = (   0.2916667   0.0721688   0.0000000), wk =   0.0277778
        k(   38) = (   0.2916667   0.2165063   0.0000000), wk =   0.0277778
        k(   39) = (   0.2916667   0.3608439   0.0000000), wk =   0.0277778
        k(   40) = (   0.2916667   0.5051815   0.0000000), wk =   0.0277778
        k(   41) = (   0.2916667   0.6495190   0.0000000), wk =   0.0277778
        k(   42) = (   0.2916667   0.7938566   0.0000000), wk =   0.0277778
        k(   43) = (   0.2916667  -0.7938566   0.0000000), wk =   0.0277778
        k(   44) = (   0.2916667  -0.6495190   0.0000000), wk =   0.0277778
        k(   45) = (   0.2916667  -0.5051815   0.0000000), wk =   0.0277778
        k(   46) = (   0.2916667  -0.3608439   0.0000000), wk =   0.0277778
        k(   47) = (   0.2916667  -0.2165063   0.0000000), wk =   0.0277778
        k(   48) = (   0.2916667  -0.0721688   0.0000000), wk =   0.0277778
        k(   49) = (   0.3750000   0.0721688   0.0000000), wk =   0.0277778
        k(   50) = (   0.3750000   0.2165063   0.0000000), wk =   0.0277778
        k(   51) = (   0.3750000   0.3608439   0.0000000), wk =   0.0277778
        k(   52) = (   0.3750000   0.5051815   0.0000000), wk =   0.0277778
        k(   53) = (   0.3750000   0.6495190   0.0000000), wk =   0.0277778
        k(   54) = (   0.3750000   0.7938566   0.0000000), wk =   0.0277778
        k(   55) = (   0.3750000  -0.7938566   0.0000000), wk =   0.0277778
        k(   56) = (   0.3750000  -0.6495190   0.0000000), wk =   0.0277778
        k(   57) = (   0.3750000  -0.5051815   0.0000000), wk =   0.0277778
        k(   58) = (   0.3750000  -0.3608439   0.0000000), wk =   0.0277778
        k(   59) = (   0.3750000  -0.2165063   0.0000000), wk =   0.0277778
        k(   60) = (   0.3750000  -0.0721688   0.0000000), wk =   0.0277778
        k(   61) = (   0.4583333   0.0721688   0.0000000), wk =   0.0277778
        k(   62) = (   0.4583333   0.2165063   0.0000000), wk =   0.0277778
        k(   63) = (   0.4583333   0.3608439   0.0000000), wk =   0.0277778
        k(   64) = (   0.4583333   0.5051815   0.0000000), wk =   0.0277778
        k(   65) = (   0.4583333   0.6495190   0.0000000), wk =   0.0277778
        k(   66) = (   0.4583333   0.7938566   0.0000000), wk =   0.0277778
        k(   67) = (   0.4583333  -0.7938566   0.0000000), wk =   0.0277778
        k(   68) = (   0.4583333  -0.6495190   0.0000000), wk =   0.0277778
        k(   69) = (   0.4583333  -0.5051815   0.0000000), wk =   0.0277778
        k(   70) = (   0.4583333  -0.3608439   0.0000000), wk =   0.0277778
        k(   71) = (   0.4583333  -0.2165063   0.0000000), wk =   0.0277778
        k(   72) = (   0.4583333  -0.0721688   0.0000000), wk =   0.0277778

     Dense  grid:  1543747 G-vectors     FFT dimensions: ( 120,  72, 375)

     Estimated max dynamical RAM per process >     299.74 MB

     Estimated total dynamical RAM >      52.15 GB

     Initial potential from superposition of free atoms

     starting charge     104.9155, renormalised to     105.0000

     negative rho (up, down):  4.627E-05 0.000E+00

     Adding external electric field

     Computed dipole along edir(3) : 
        Dipole                0.0117 Ry au,          0.0297 Debye
        Dipole field          0.0000 Ry au, 

        Potential amp.       -0.0012 Ry
        Total length         45.3534 bohr

     Starting wfcs are  133 atomic wfcs

     total cpu time spent up to now is       15.3 secs

     Self-consistent Calculation

     iteration #  1     ecut=   100.00 Ry     beta= 0.70
     Davidson diagonalization with overlap
     ethr =  1.00E-02,  avg # of iterations =  3.1

     negative rho (up, down):  8.820E-06 0.000E+00

     Adding external electric field

     Computed dipole along edir(3) : 
        Dipole               -5.3258 Ry au,        -13.5369 Debye
        Dipole field         -0.0059 Ry au, 

        Potential amp.        0.5313 Ry
        Total length         45.3534 bohr


     total cpu time spent up to now is       28.2 secs

     total energy              =    -237.68330924 Ry
     estimated scf accuracy    <       2.38437212 Ry

     iteration #  2     ecut=   100.00 Ry     beta= 0.70
     Davidson diagonalization with overlap
     ethr =  2.27E-03,  avg # of iterations = 18.9

     negative rho (up, down):  8.759E-08 0.000E+00

     Adding external electric field

     Computed dipole along edir(3) : 
        Dipole                8.3068 Ry au,         21.1138 Debye
        Dipole field          0.0091 Ry au, 

        Potential amp.       -0.8287 Ry
        Total length         45.3534 bohr


     total cpu time spent up to now is       67.8 secs

     total energy              =    -208.90260744 Ry
     estimated scf accuracy    <    1188.29227175 Ry

     iteration #  3     ecut=   100.00 Ry     beta= 0.70
     Davidson diagonalization with overlap
     ethr =  2.27E-03,  avg # of iterations = 16.4

     Adding external electric field

     Computed dipole along edir(3) : 
        Dipole                1.8839 Ry au,          4.7883 Debye
        Dipole field          0.0021 Ry au, 

        Potential amp.       -0.1879 Ry
        Total length         45.3534 bohr


     total cpu time spent up to now is      106.6 secs

     total energy              =    -225.96226694 Ry
     estimated scf accuracy    <     550.29850317 Ry

     iteration #  4     ecut=   100.00 Ry     beta= 0.70
     Davidson diagonalization with overlap
     ethr =  2.27E-03,  avg # of iterations = 10.9

     Adding external electric field

     Computed dipole along edir(3) : 
        Dipole               -0.0889 Ry au,         -0.2259 Debye
        Dipole field         -0.0001 Ry au, 

        Potential amp.        0.0089 Ry
        Total length         45.3534 bohr


     total cpu time spent up to now is      128.1 secs

     total energy              =    -239.02325273 Ry
     estimated scf accuracy    <       6.14151498 Ry

     iteration #  5     ecut=   100.00 Ry     beta= 0.70
     Davidson diagonalization with overlap
     ethr =  2.27E-03,  avg # of iterations =  2.6

     Adding external electric field

     Computed dipole along edir(3) : 
        Dipole                0.8827 Ry au,          2.2435 Debye
        Dipole field          0.0010 Ry au, 

        Potential amp.       -0.0881 Ry
        Total length         45.3534 bohr


     total cpu time spent up to now is      138.0 secs

     total energy              =    -239.35216386 Ry
     estimated scf accuracy    <       2.41032437 Ry

     iteration #  6     ecut=   100.00 Ry     beta= 0.70
     Davidson diagonalization with overlap
     ethr =  2.27E-03,  avg # of iterations =  1.6

     Adding external electric field

     Computed dipole along edir(3) : 
        Dipole                0.8677 Ry au,          2.2054 Debye
        Dipole field          0.0010 Ry au, 

        Potential amp.       -0.0866 Ry
        Total length         45.3534 bohr


     total cpu time spent up to now is      147.4 secs

     total energy              =    -239.38989050 Ry
     estimated scf accuracy    <       0.74013008 Ry

     iteration #  7     ecut=   100.00 Ry     beta= 0.70
     Davidson diagonalization with overlap
     ethr =  7.05E-04,  avg # of iterations =  1.3

     Adding external electric field

     Computed dipole along edir(3) : 
        Dipole                1.0154 Ry au,          2.5809 Debye
        Dipole field          0.0011 Ry au, 

        Potential amp.       -0.1013 Ry
        Total length         45.3534 bohr


     total cpu time spent up to now is      156.3 secs

     total energy              =    -239.39493479 Ry
     estimated scf accuracy    <       0.36800491 Ry

     iteration #  8     ecut=   100.00 Ry     beta= 0.70
     Davidson diagonalization with overlap
     ethr =  3.50E-04,  avg # of iterations =  1.8

     Adding external electric field

     Computed dipole along edir(3) : 
        Dipole                1.0680 Ry au,          2.7147 Debye
        Dipole field          0.0012 Ry au, 

        Potential amp.       -0.1066 Ry
        Total length         45.3534 bohr


     total cpu time spent up to now is      165.8 secs

     total energy              =    -239.39042643 Ry
     estimated scf accuracy    <       0.27950781 Ry

     iteration #  9     ecut=   100.00 Ry     beta= 0.70
     Davidson diagonalization with overlap
     ethr =  2.66E-04,  avg # of iterations =  1.3

     Adding external electric field

     Computed dipole along edir(3) : 
        Dipole                1.0491 Ry au,          2.6665 Debye
        Dipole field          0.0012 Ry au, 

        Potential amp.       -0.1047 Ry
        Total length         45.3534 bohr


     total cpu time spent up to now is      174.6 secs

     total energy              =    -239.36580254 Ry
     estimated scf accuracy    <       0.22709799 Ry

     iteration # 10     ecut=   100.00 Ry     beta= 0.70
     Davidson diagonalization with overlap
     ethr =  2.16E-04,  avg # of iterations =  1.2

     Adding external electric field

     Computed dipole along edir(3) : 
        Dipole                1.0589 Ry au,          2.6914 Debye
        Dipole field          0.0012 Ry au, 

        Potential amp.       -0.1056 Ry
        Total length         45.3534 bohr


     total cpu time spent up to now is      183.3 secs

     total energy              =    -239.37225180 Ry
     estimated scf accuracy    <       0.18308910 Ry

     iteration # 11     ecut=   100.00 Ry     beta= 0.70
     Davidson diagonalization with overlap
     ethr =  1.74E-04,  avg # of iterations =  1.0

     negative rho (up, down):  1.920E-01 0.000E+00

     Adding external electric field

     Computed dipole along edir(3) : 
        Dipole                0.4173 Ry au,          1.0608 Debye
        Dipole field          0.0005 Ry au, 

        Potential amp.       -0.0416 Ry
        Total length         45.3534 bohr


     total cpu time spent up to now is      191.7 secs

     total energy              =    -239.32897494 Ry
     estimated scf accuracy    <       0.17234267 Ry

     iteration # 12     ecut=   100.00 Ry     beta= 0.70
     Davidson diagonalization with overlap
     ethr =  1.64E-04,  avg # of iterations = 10.6

     negative rho (up, down):  1.537E-02 0.000E+00

     Adding external electric field

     Computed dipole along edir(3) : 
        Dipole               -1.1575 Ry au,         -2.9421 Debye
        Dipole field         -0.0013 Ry au, 

        Potential amp.        0.1155 Ry
        Total length         45.3534 bohr


     total cpu time spent up to now is      207.2 secs

     total energy              =    -239.32559690 Ry
     estimated scf accuracy    <       0.10984887 Ry

     iteration # 13     ecut=   100.00 Ry     beta= 0.70
     Davidson diagonalization with overlap
     c_bands:  1 eigenvalues not converged
     c_bands:  1 eigenvalues not converged
     ethr =  1.05E-04,  avg # of iterations =  6.1

     negative rho (up, down):  2.493E-02 0.000E+00

     Adding external electric field

     Computed dipole along edir(3) : 
        Dipole               -1.1472 Ry au,         -2.9160 Debye
        Dipole field         -0.0013 Ry au, 

        Potential amp.        0.1145 Ry
        Total length         45.3534 bohr


     total cpu time spent up to now is      221.2 secs

     total energy              =    -239.28837607 Ry
     estimated scf accuracy    <       0.40589807 Ry

     iteration # 14     ecut=   100.00 Ry     beta= 0.70
     Davidson diagonalization with overlap
     ethr =  1.05E-04,  avg # of iterations =  4.1

     negative rho (up, down):  1.365E-02 0.000E+00

     Adding external electric field

     Computed dipole along edir(3) : 
        Dipole               -0.8463 Ry au,         -2.1510 Debye
        Dipole field         -0.0009 Ry au, 

        Potential amp.        0.0844 Ry
        Total length         45.3534 bohr


     total cpu time spent up to now is      234.2 secs

     total energy              =    -239.30675281 Ry
     estimated scf accuracy    <       0.22724543 Ry

     iteration # 15     ecut=   100.00 Ry     beta= 0.70
     Davidson diagonalization with overlap
     ethr =  1.05E-04,  avg # of iterations =  2.1

     negative rho (up, down):  5.075E-03 0.000E+00

     Adding external electric field

     Computed dipole along edir(3) : 
        Dipole               -0.8923 Ry au,         -2.2681 Debye
        Dipole field         -0.0010 Ry au, 

        Potential amp.        0.0890 Ry
        Total length         45.3534 bohr


     total cpu time spent up to now is      243.5 secs

     total energy              =    -239.31604979 Ry
     estimated scf accuracy    <       0.01130305 Ry

     iteration # 16     ecut=   100.00 Ry     beta= 0.70
     Davidson diagonalization with overlap
     ethr =  1.08E-05,  avg # of iterations =  9.0

     negative rho (up, down):  1.339E-03 0.000E+00

     Adding external electric field

     Computed dipole along edir(3) : 
        Dipole               -0.9825 Ry au,         -2.4972 Debye
        Dipole field         -0.0011 Ry au, 

        Potential amp.        0.0980 Ry
        Total length         45.3534 bohr


     total cpu time spent up to now is      260.0 secs

     total energy              =    -239.31792303 Ry
     estimated scf accuracy    <       0.00454560 Ry

     iteration # 17     ecut=   100.00 Ry     beta= 0.70
     Davidson diagonalization with overlap
     ethr =  4.33E-06,  avg # of iterations =  5.9

     Adding external electric field

     Computed dipole along edir(3) : 
        Dipole               -1.0396 Ry au,         -2.6424 Debye
        Dipole field         -0.0011 Ry au, 

        Potential amp.        0.1037 Ry
        Total length         45.3534 bohr


     total cpu time spent up to now is      275.1 secs

     total energy              =    -239.31854761 Ry
     estimated scf accuracy    <       0.00174462 Ry

     iteration # 18     ecut=   100.00 Ry     beta= 0.70
     Davidson diagonalization with overlap
     ethr =  1.66E-06,  avg # of iterations =  4.7

     negative rho (up, down):  2.517E-04 0.000E+00

     Adding external electric field

     Computed dipole along edir(3) : 
        Dipole               -1.0223 Ry au,         -2.5985 Debye
        Dipole field         -0.0011 Ry au, 

        Potential amp.        0.1020 Ry
        Total length         45.3534 bohr


     total cpu time spent up to now is      287.9 secs

     total energy              =    -239.31874706 Ry
     estimated scf accuracy    <       0.00041288 Ry

     iteration # 19     ecut=   100.00 Ry     beta= 0.70
     Davidson diagonalization with overlap
     ethr =  3.93E-07,  avg # of iterations =  3.7

     negative rho (up, down):  2.135E-04 0.000E+00

     Adding external electric field

     Computed dipole along edir(3) : 
        Dipole               -1.0126 Ry au,         -2.5737 Debye
        Dipole field         -0.0011 Ry au, 

        Potential amp.        0.1010 Ry
        Total length         45.3534 bohr


     total cpu time spent up to now is      299.0 secs

     total energy              =    -239.31877323 Ry
     estimated scf accuracy    <       0.00040159 Ry

     iteration # 20     ecut=   100.00 Ry     beta= 0.70
     Davidson diagonalization with overlap
     ethr =  3.82E-07,  avg # of iterations =  2.0

     negative rho (up, down):  1.246E-04 0.000E+00

     Adding external electric field

     Computed dipole along edir(3) : 
        Dipole               -1.0311 Ry au,         -2.6208 Debye
        Dipole field         -0.0011 Ry au, 

        Potential amp.        0.1029 Ry
        Total length         45.3534 bohr


     total cpu time spent up to now is      308.4 secs

     total energy              =    -239.31879156 Ry
     estimated scf accuracy    <       0.00049314 Ry

     iteration # 21     ecut=   100.00 Ry     beta= 0.70
     Davidson diagonalization with overlap
     ethr =  3.82E-07,  avg # of iterations =  1.7

     negative rho (up, down):  7.975E-07 0.000E+00

     Adding external electric field

     Computed dipole along edir(3) : 
        Dipole               -1.0340 Ry au,         -2.6282 Debye
        Dipole field         -0.0011 Ry au, 

        Potential amp.        0.1032 Ry
        Total length         45.3534 bohr


     total cpu time spent up to now is      317.5 secs

     total energy              =    -239.31881155 Ry
     estimated scf accuracy    <       0.00020938 Ry

     iteration # 22     ecut=   100.00 Ry     beta= 0.70
     Davidson diagonalization with overlap
     ethr =  1.99E-07,  avg # of iterations =  1.0

     Adding external electric field

     Computed dipole along edir(3) : 
        Dipole               -1.0357 Ry au,         -2.6325 Debye
        Dipole field         -0.0011 Ry au, 

        Potential amp.        0.1033 Ry
        Total length         45.3534 bohr


     total cpu time spent up to now is      325.9 secs

     total energy              =    -239.31881956 Ry
     estimated scf accuracy    <       0.00001225 Ry

     iteration # 23     ecut=   100.00 Ry     beta= 0.70
     Davidson diagonalization with overlap
     ethr =  1.17E-08,  avg # of iterations =  4.2

     Adding external electric field

     Computed dipole along edir(3) : 
        Dipole               -1.0327 Ry au,         -2.6249 Debye
        Dipole field         -0.0011 Ry au, 

        Potential amp.        0.1030 Ry
        Total length         45.3534 bohr


     total cpu time spent up to now is      338.1 secs

     total energy              =    -239.31882088 Ry
     estimated scf accuracy    <       0.00001670 Ry

     iteration # 24     ecut=   100.00 Ry     beta= 0.70
     Davidson diagonalization with overlap
     ethr =  1.17E-08,  avg # of iterations =  2.0

     negative rho (up, down):  3.093E-08 0.000E+00

     Adding external electric field

     Computed dipole along edir(3) : 
        Dipole               -1.0319 Ry au,         -2.6229 Debye
        Dipole field         -0.0011 Ry au, 

        Potential amp.        0.1030 Ry
        Total length         45.3534 bohr


     total cpu time spent up to now is      347.6 secs

     total energy              =    -239.31882216 Ry
     estimated scf accuracy    <       0.00000106 Ry

     iteration # 25     ecut=   100.00 Ry     beta= 0.70
     Davidson diagonalization with overlap
     ethr =  1.01E-09,  avg # of iterations =  4.4

     Adding external electric field

     Computed dipole along edir(3) : 
        Dipole               -1.0314 Ry au,         -2.6215 Debye
        Dipole field         -0.0011 Ry au, 

        Potential amp.        0.1029 Ry
        Total length         45.3534 bohr


     total cpu time spent up to now is      361.0 secs

     total energy              =    -239.31882239 Ry
     estimated scf accuracy    <       0.00000635 Ry

     iteration # 26     ecut=   100.00 Ry     beta= 0.70
     Davidson diagonalization with overlap
     ethr =  1.01E-09,  avg # of iterations =  2.5

     Adding external electric field

     Computed dipole along edir(3) : 
        Dipole               -1.0320 Ry au,         -2.6231 Debye
        Dipole field         -0.0011 Ry au, 

        Potential amp.        0.1030 Ry
        Total length         45.3534 bohr


     total cpu time spent up to now is      371.3 secs

     total energy              =    -239.31882268 Ry
     estimated scf accuracy    <       0.00000050 Ry

     iteration # 27     ecut=   100.00 Ry     beta= 0.70
     Davidson diagonalization with overlap
     ethr =  4.72E-10,  avg # of iterations =  2.0

     Adding external electric field

     Computed dipole along edir(3) : 
        Dipole               -1.0320 Ry au,         -2.6230 Debye
        Dipole field         -0.0011 Ry au, 

        Potential amp.        0.1030 Ry
        Total length         45.3534 bohr


     total cpu time spent up to now is      380.9 secs

     total energy              =    -239.31882270 Ry
     estimated scf accuracy    <       0.00000018 Ry

     iteration # 28     ecut=   100.00 Ry     beta= 0.70
     Davidson diagonalization with overlap
     ethr =  1.75E-10,  avg # of iterations =  2.0

     Adding external electric field

     Computed dipole along edir(3) : 
        Dipole               -1.0323 Ry au,         -2.6238 Debye
        Dipole field         -0.0011 Ry au, 

        Potential amp.        0.1030 Ry
        Total length         45.3534 bohr


     total cpu time spent up to now is      390.6 secs

     total energy              =    -239.31882271 Ry
     estimated scf accuracy    <       0.00000007 Ry

     iteration # 29     ecut=   100.00 Ry     beta= 0.70
     Davidson diagonalization with overlap
     ethr =  7.12E-11,  avg # of iterations =  3.4

     Adding external electric field

     Computed dipole along edir(3) : 
        Dipole               -1.0321 Ry au,         -2.6233 Debye
        Dipole field         -0.0011 Ry au, 

        Potential amp.        0.1030 Ry
        Total length         45.3534 bohr


     total cpu time spent up to now is      401.6 secs

     total energy              =    -239.31882272 Ry
     estimated scf accuracy    <       0.00000015 Ry

     iteration # 30     ecut=   100.00 Ry     beta= 0.70
     Davidson diagonalization with overlap
     ethr =  7.12E-11,  avg # of iterations =  2.0

     Adding external electric field

     Computed dipole along edir(3) : 
        Dipole               -1.0322 Ry au,         -2.6235 Debye
        Dipole field         -0.0011 Ry au, 

        Potential amp.        0.1030 Ry
        Total length         45.3534 bohr


     total cpu time spent up to now is      411.0 secs

     total energy              =    -239.31882273 Ry
     estimated scf accuracy    <       0.00000006 Ry

     iteration # 31     ecut=   100.00 Ry     beta= 0.70
     Davidson diagonalization with overlap
     ethr =  5.81E-11,  avg # of iterations =  1.0

     Adding external electric field

     Computed dipole along edir(3) : 
        Dipole               -1.0321 Ry au,         -2.6234 Debye
        Dipole field         -0.0011 Ry au, 

        Potential amp.        0.1030 Ry
        Total length         45.3534 bohr


     total cpu time spent up to now is      419.4 secs

     total energy              =    -239.31882274 Ry
     estimated scf accuracy    <       0.00000001 Ry

     iteration # 32     ecut=   100.00 Ry     beta= 0.70
     Davidson diagonalization with overlap
     ethr =  9.78E-12,  avg # of iterations =  2.2

     Adding external electric field

     Computed dipole along edir(3) : 
        Dipole               -1.0321 Ry au,         -2.6232 Debye
        Dipole field         -0.0011 Ry au, 

        Potential amp.        0.1030 Ry
        Total length         45.3534 bohr


     total cpu time spent up to now is      428.9 secs

     total energy              =    -239.31882274 Ry
     estimated scf accuracy    <          9.0E-09 Ry

     iteration # 33     ecut=   100.00 Ry     beta= 0.70
     Davidson diagonalization with overlap
     ethr =  8.56E-12,  avg # of iterations =  1.4

     Adding external electric field

     Computed dipole along edir(3) : 
        Dipole               -1.0320 Ry au,         -2.6232 Debye
        Dipole field         -0.0011 Ry au, 

        Potential amp.        0.1030 Ry
        Total length         45.3534 bohr


     total cpu time spent up to now is      437.8 secs

     total energy              =    -239.31882274 Ry
     estimated scf accuracy    <          3.3E-09 Ry

     iteration # 34     ecut=   100.00 Ry     beta= 0.70
     Davidson diagonalization with overlap
     ethr =  3.18E-12,  avg # of iterations =  2.4

     Adding external electric field

     Computed dipole along edir(3) : 
        Dipole               -1.0320 Ry au,         -2.6232 Debye
        Dipole field         -0.0011 Ry au, 

        Potential amp.        0.1030 Ry
        Total length         45.3534 bohr


     total cpu time spent up to now is      447.8 secs

     End of self-consistent calculation

          k = 0.0417 0.0722 0.0000 (192948 PWs)   bands (ev):

   -53.6137 -25.5460 -25.5293 -25.5275 -10.4565  -9.4289  -9.0779  -8.8287
    -8.0580  -7.8116  -7.7784  -6.4204  -6.3604  -6.1746  -5.6289  -5.5765
    -5.3576  -5.0242  -4.7839  -4.7837  -4.6324  -4.3010  -4.3010  -4.2259
    -4.0771  -4.0242  -3.9820  -3.8038  -3.8030  -3.7518  -3.3452  -3.3445
    -3.1562  -3.1331  -3.0435  -2.4164  -2.2639  -2.2583  -1.8612  -1.6646
    -1.6201  -1.5162  -1.5091  -1.3451  -1.1727  -0.7594  -0.4512  -0.3252
    -0.1857  -0.1331   0.0715   0.0860   0.2495   0.2746   0.5650   0.5698
     0.6702   0.7005   0.7956   0.8023   0.9984   1.0343   1.2277   1.3776

          k = 0.0417 0.2165 0.0000 (192942 PWs)   bands (ev):

   -53.6137 -25.5460 -25.5293 -25.5275 -10.3935  -9.3663  -9.0155  -8.7664
    -7.9960  -7.7497  -7.7163  -7.0348  -6.3589  -6.1134  -6.0271  -5.6902
    -5.5145  -5.4473  -4.8410  -4.7235  -4.6955  -4.4568  -4.4103  -4.2408
    -4.1645  -3.9213  -3.8529  -3.7432  -3.5296  -3.3069  -3.2852  -3.1303
    -3.0915  -2.9586  -2.4481  -2.3066  -2.2782  -2.2611  -2.2026  -1.7994
    -1.5654  -1.5309  -1.4517  -1.0882  -0.9150  -0.8752  -0.6729  -0.5016
    -0.4680  -0.3778  -0.2062  -0.0232   0.1327   0.3506   0.6207   0.6972
     0.7469   1.0514   1.1292   1.1908   1.2808   1.3038   1.4200   1.5501

          k = 0.0417 0.3608 0.0000 (192862 PWs)   bands (ev):

   -53.6137 -25.5460 -25.5293 -25.5275 -10.2677  -9.2412  -8.8909  -8.6420
    -7.8721  -7.6509  -7.6259  -7.5920  -6.6392  -6.2996  -6.2359  -6.0555
    -5.9906  -5.3911  -5.2980  -5.0571  -5.0137  -4.6029  -4.1207  -4.0436
    -3.9990  -3.8003  -3.7030  -3.6236  -3.4718  -3.1665  -3.0265  -2.9768
    -2.8394  -2.7098  -2.4961  -2.1086  -2.0862  -1.8101  -1.7354  -1.6822
    -1.6601  -1.5803  -1.4488  -1.3332  -1.0933  -1.0663  -1.0328  -0.6304
    -0.5283  -0.2615   0.0011   0.2198   0.2390   0.2860   0.7191   0.8109
     0.8918   1.0768   1.1710   1.1807   1.3607   1.3691   1.3998   1.7841

          k = 0.0417 0.5052 0.0000 (192883 PWs)   bands (ev):

   -53.6137 -25.5460 -25.5293 -25.5275 -10.0792  -9.0537  -8.7042  -8.4557
    -8.2076  -7.6865  -7.4406  -7.4061  -7.1924  -6.8506  -6.6054  -6.0522
    -5.8448  -5.8072  -5.6023  -5.5612  -5.2046  -4.4222  -4.2343  -3.9960
    -3.9405  -3.8610  -3.6190  -3.4449  -3.3769  -3.1077  -2.9887  -2.7969
    -2.6322  -2.1894  -2.1781  -2.1251  -2.0701  -1.9121  -1.7141  -1.6016
    -1.5087  -1.4682  -1.2877  -1.2709  -1.1569  -1.0330  -0.6616  -0.5364
    -0.4668  -0.1111  -0.0888   0.3359   0.3862   0.5493   0.8379   0.8746
     0.8784   1.0138   1.0985   1.3208   1.5102   1.5763   1.9123   2.1854

          k = 0.0417 0.6495 0.0000 (192942 PWs)   bands (ev):

   -53.6137 -25.5460 -25.5293 -25.5275  -9.8282  -8.8041  -8.7042  -8.4556
    -8.2075  -7.6864  -7.4393  -7.3425  -7.1939  -7.1584  -7.0963  -6.3332
    -6.0898  -6.0503  -5.8070  -5.5627  -4.9587  -4.7136  -4.4727  -4.1817
    -3.8600  -3.7010  -3.6190  -3.3783  -3.2072  -3.1076  -2.7525  -2.6323
    -2.5809  -2.5463  -2.3408  -2.1891  -2.1249  -1.7142  -1.6823  -1.5036
    -1.2872  -1.2679  -1.0394  -0.9260  -0.8478  -0.6756  -0.5360  -0.1257
    -0.1047   0.0094   0.1507   0.3321   0.4780   0.4935   0.7731   0.8749
     1.1039   1.2990   1.4594   1.5190   1.7039   1.7762   1.9088   2.0069

          k = 0.0417 0.7939 0.0000 (192966 PWs)   bands (ev):

   -53.6137 -25.5460 -25.5293 -25.5275  -9.5151  -9.1403  -8.4926  -8.1456
    -8.1199  -7.8980  -7.7743  -7.5274  -7.1311  -6.8862  -6.8497  -6.7620
    -6.5178  -6.4798  -5.5021  -5.2586  -5.1371  -4.8947  -4.6512  -4.2837
    -3.8819  -3.5234  -3.4024  -3.3210  -3.0822  -3.0452  -2.9655  -2.9110
    -2.7303  -2.5596  -2.4586  -2.2660  -2.1099  -1.9087  -1.4020  -1.1896
    -1.0904  -0.9865  -0.7598  -0.6591  -0.6521  -0.4586  -0.3480  -0.1688
    -0.1617   0.2424   0.3985   0.4483   0.5083   0.8027   1.1421   1.2027
     1.2534   1.3780   1.4039   1.4294   1.5993   1.6976   1.7563   1.9764

          k = 0.0417-0.7939 0.0000 (192966 PWs)   bands (ev):

   -53.6137 -25.5460 -25.5293 -25.5275  -9.5151  -9.1403  -8.4926  -8.1456
    -8.1199  -7.8980  -7.7743  -7.5274  -7.1311  -6.8862  -6.8497  -6.7620
    -6.5178  -6.4798  -5.5021  -5.2586  -5.1371  -4.8947  -4.6512  -4.2837
    -3.8819  -3.5234  -3.4024  -3.3210  -3.0822  -3.0452  -2.9655  -2.9110
    -2.7303  -2.5596  -2.4586  -2.2660  -2.1099  -1.9087  -1.4020  -1.1896
    -1.0904  -0.9865  -0.7598  -0.6591  -0.6521  -0.4586  -0.3480  -0.1688
    -0.1617   0.2424   0.3985   0.4483   0.5083   0.8027   1.1421   1.2027
     1.2534   1.3780   1.4039   1.4294   1.5993   1.6976   1.7563   1.9764

          k = 0.0417-0.6495 0.0000 (192942 PWs)   bands (ev):

   -53.6137 -25.5460 -25.5293 -25.5275  -9.8282  -8.8041  -8.7042  -8.4556
    -8.2075  -7.6864  -7.4393  -7.3425  -7.1939  -7.1584  -7.0963  -6.3332
    -6.0898  -6.0503  -5.8070  -5.5627  -4.9587  -4.7136  -4.4727  -4.1817
    -3.8600  -3.7010  -3.6190  -3.3783  -3.2072  -3.1076  -2.7525  -2.6323
    -2.5809  -2.5463  -2.3408  -2.1891  -2.1249  -1.7142  -1.6823  -1.5036
    -1.2872  -1.2679  -1.0394  -0.9260  -0.8478  -0.6756  -0.5360  -0.1257
    -0.1047   0.0094   0.1507   0.3321   0.4780   0.4935   0.7731   0.8749
     1.1039   1.2990   1.4594   1.5190   1.7039   1.7762   1.9088   2.0069

          k = 0.0417-0.5052 0.0000 (192883 PWs)   bands (ev):

   -53.6137 -25.5460 -25.5293 -25.5275 -10.0792  -9.0537  -8.7042  -8.4557
    -8.2076  -7.6865  -7.4406  -7.4061  -7.1924  -6.8506  -6.6054  -6.0522
    -5.8448  -5.8072  -5.6023  -5.5612  -5.2046  -4.4222  -4.2343  -3.9960
    -3.9405  -3.8610  -3.6190  -3.4449  -3.3769  -3.1077  -2.9887  -2.7969
    -2.6322  -2.1894  -2.1781  -2.1251  -2.0701  -1.9121  -1.7141  -1.6016
    -1.5087  -1.4682  -1.2877  -1.2709  -1.1569  -1.0330  -0.6616  -0.5364
    -0.4668  -0.1111  -0.0888   0.3359   0.3862   0.5493   0.8379   0.8746
     0.8784   1.0138   1.0985   1.3208   1.5102   1.5763   1.9123   2.1854

          k = 0.0417-0.3608 0.0000 (192862 PWs)   bands (ev):

   -53.6137 -25.5460 -25.5293 -25.5275 -10.2677  -9.2412  -8.8909  -8.6420
    -7.8721  -7.6509  -7.6259  -7.5920  -6.6392  -6.2996  -6.2359  -6.0555
    -5.9906  -5.3911  -5.2980  -5.0571  -5.0137  -4.6029  -4.1207  -4.0436
    -3.9990  -3.8003  -3.7030  -3.6236  -3.4718  -3.1665  -3.0265  -2.9768
    -2.8394  -2.7098  -2.4961  -2.1086  -2.0862  -1.8101  -1.7354  -1.6822
    -1.6601  -1.5803  -1.4488  -1.3332  -1.0933  -1.0663  -1.0328  -0.6304
    -0.5283  -0.2615   0.0011   0.2198   0.2390   0.2860   0.7191   0.8109
     0.8918   1.0768   1.1710   1.1807   1.3607   1.3691   1.3998   1.7841

          k = 0.0417-0.2165 0.0000 (192942 PWs)   bands (ev):

   -53.6137 -25.5460 -25.5293 -25.5275 -10.3935  -9.3663  -9.0155  -8.7664
    -7.9960  -7.7497  -7.7163  -7.0348  -6.3589  -6.1134  -6.0271  -5.6902
    -5.5145  -5.4473  -4.8410  -4.7235  -4.6955  -4.4568  -4.4103  -4.2408
    -4.1645  -3.9213  -3.8529  -3.7432  -3.5296  -3.3069  -3.2852  -3.1303
    -3.0915  -2.9586  -2.4481  -2.3066  -2.2782  -2.2611  -2.2026  -1.7994
    -1.5654  -1.5309  -1.4517  -1.0882  -0.9150  -0.8752  -0.6729  -0.5016
    -0.4680  -0.3778  -0.2062  -0.0232   0.1327   0.3506   0.6207   0.6972
     0.7469   1.0514   1.1292   1.1908   1.2808   1.3038   1.4200   1.5501

          k = 0.0417-0.0722 0.0000 (192948 PWs)   bands (ev):

   -53.6137 -25.5460 -25.5293 -25.5275 -10.4565  -9.4289  -9.0779  -8.8287
    -8.0580  -7.8116  -7.7784  -6.4204  -6.3604  -6.1746  -5.6289  -5.5765
    -5.3576  -5.0242  -4.7839  -4.7837  -4.6324  -4.3010  -4.3010  -4.2259
    -4.0771  -4.0242  -3.9820  -3.8038  -3.8030  -3.7518  -3.3452  -3.3445
    -3.1562  -3.1331  -3.0435  -2.4164  -2.2639  -2.2583  -1.8612  -1.6646
    -1.6201  -1.5162  -1.5091  -1.3451  -1.1727  -0.7594  -0.4512  -0.3252
    -0.1857  -0.1331   0.0715   0.0860   0.2495   0.2746   0.5650   0.5698
     0.6702   0.7005   0.7956   0.8023   0.9984   1.0343   1.2277   1.3776

          k = 0.1250 0.0722 0.0000 (192973 PWs)   bands (ev):

   -53.6137 -25.5460 -25.5293 -25.5275 -10.4355  -9.4081  -9.3067  -8.5592
    -8.2855  -7.7596  -7.5419  -6.6457  -6.3401  -5.9096  -5.6087  -5.5556
    -5.3375  -5.2460  -5.2451  -4.6126  -4.5499  -4.4935  -4.4487  -4.2593
    -4.2557  -3.8043  -3.8031  -3.7381  -3.7170  -3.5698  -3.5322  -3.1352
    -3.0261  -2.9636  -2.9622  -2.5308  -2.5246  -2.1666  -2.0705  -1.6579
    -1.5739  -1.4189  -1.3727  -1.1342  -1.1251  -0.9199  -0.5707  -0.4438
    -0.3234  -0.3120  -0.2135   0.2007   0.2451   0.3650   0.4385   0.5747
     0.7250   0.9548   0.9723   1.0374   1.0517   1.0574   1.2141   1.5102

          k = 0.1250 0.2165 0.0000 (192926 PWs)   bands (ev):

   -53.6137 -25.5460 -25.5293 -25.5275 -10.3726  -9.3455  -9.2442  -8.4971
    -8.2234  -7.6975  -7.4801  -7.0144  -6.5842  -6.0071  -5.9132  -5.8483
    -5.4936  -5.1850  -5.1849  -4.9158  -4.8210  -4.3979  -4.3811  -4.1976
    -4.1973  -3.8339  -3.7438  -3.7435  -3.6606  -3.3488  -3.0750  -3.0299
    -2.9048  -2.9041  -2.4689  -2.4678  -2.2985  -2.2465  -2.0691  -2.0102
    -1.9630  -1.3169  -1.0753  -1.0678  -1.0264  -0.9880  -0.6446  -0.3912
    -0.3024  -0.2661  -0.2606  -0.0908  -0.0083   0.3750   0.3914   0.6334
     1.0187   1.0483   1.0924   1.0992   1.2114   1.2421   1.2703   1.5647

          k = 0.1250 0.3608 0.0000 (192891 PWs)   bands (ev):

   -53.6137 -25.5460 -25.5293 -25.5275 -10.2468  -9.2204  -9.1194  -8.3729
    -8.0993  -7.6303  -7.5732  -7.3567  -6.6188  -6.5238  -6.4609  -5.7915
    -5.7261  -5.5207  -5.3697  -5.0638  -4.9949  -4.7946  -4.2658  -4.0774
    -3.9795  -3.9179  -3.6240  -3.5406  -3.2307  -3.0088  -2.9577  -2.9105
    -2.8203  -2.7872  -2.5527  -2.3493  -2.2946  -1.9522  -1.8948  -1.7551
    -1.7428  -1.3275  -1.2018  -1.1456  -0.9871  -0.9532  -0.8746  -0.5134
    -0.2609  -0.2401  -0.1873  -0.1525   0.0446   0.4512   0.6538   0.7607
     0.9894   1.1255   1.1685   1.1945   1.3302   1.3840   1.6975   1.8750

          k = 0.1250 0.5052 0.0000 (192912 PWs)   bands (ev):

   -53.6137 -25.5460 -25.5293 -25.5275 -10.0583  -9.0329  -8.9324  -8.1873
    -8.1864  -7.9133  -7.3873  -7.1739  -7.1697  -7.0758  -6.3403  -6.2768
    -6.0682  -5.5490  -5.5366  -5.3380  -5.1838  -4.8823  -4.4537  -4.0828
    -3.8978  -3.7396  -3.4445  -3.3719  -3.3455  -3.1192  -3.0520  -2.7775
    -2.6121  -2.3448  -2.1736  -2.1701  -2.1185  -2.1069  -1.7171  -1.6733
    -1.5736  -1.2613  -1.0482  -1.0090  -0.9932  -0.8076  -0.7790  -0.4760
    -0.2745  -0.2496  -0.0819   0.0013   0.1735   0.6155   0.8318   0.9161
     1.1620   1.2560   1.3083   1.3468   1.4692   1.5487   1.8689   2.0581

          k = 0.1250 0.6495 0.0000 (192967 PWs)   bands (ev):

   -53.6137 -25.5460 -25.5293 -25.5275  -9.8073  -8.7833  -8.6839  -8.6831
    -7.9392  -7.6681  -7.6634  -7.5685  -7.1395  -6.9256  -6.8301  -6.5576
    -6.0371  -6.0256  -5.8239  -5.2993  -4.9446  -4.9283  -4.6408  -4.2131
    -3.8528  -3.8265  -3.6590  -3.5613  -3.2057  -3.1211  -2.7759  -2.5992
    -2.5403  -2.3794  -2.1741  -2.1134  -2.1044  -1.9360  -1.5067  -1.4591
    -1.4413  -1.1966  -1.0266  -0.7932  -0.7757  -0.5986  -0.5520  -0.1493
    -0.0330   0.1216   0.1412   0.1778   0.4027   0.7186   0.9424   1.0151
     1.0775   1.2298   1.5056   1.5392   1.5619   1.6660   1.7033   2.0787

          k = 0.1250 0.7939 0.0000 (192964 PWs)   bands (ev):

   -53.6137 -25.5460 -25.5293 -25.5275  -9.4943  -9.1195  -8.4720  -8.3728
    -8.0992  -8.0010  -7.6302  -7.3570  -7.2604  -6.9874  -6.8306  -6.6185
    -6.4608  -6.2510  -5.7256  -5.3598  -4.9959  -4.6404  -4.6236  -4.3396
    -4.2632  -3.9794  -3.5399  -3.3618  -3.1816  -3.0070  -2.9082  -2.8267
    -2.5530  -2.4810  -2.2461  -2.0911  -1.8896  -1.7529  -1.6467  -1.3277
    -1.1940  -1.1456  -0.8536  -0.5192  -0.3167  -0.2945  -0.2445  -0.1832
     0.0429   0.1437   0.3787   0.4417   0.6379   0.8214   0.9911   1.0106
     1.1607   1.2357   1.2884   1.5776   1.6706   1.6980   1.9312   2.0924

          k = 0.1250-0.7939 0.0000 (192964 PWs)   bands (ev):

   -53.6137 -25.5460 -25.5293 -25.5275  -9.4943  -9.1195  -8.4720  -8.3728
    -8.0992  -8.0010  -7.6302  -7.3570  -7.2604  -6.9874  -6.8306  -6.6185
    -6.4608  -6.2510  -5.7256  -5.3598  -4.9959  -4.6404  -4.6236  -4.3396
    -4.2632  -3.9794  -3.5399  -3.3618  -3.1816  -3.0070  -2.9082  -2.8267
    -2.5530  -2.4810  -2.2461  -2.0911  -1.8896  -1.7529  -1.6467  -1.3277
    -1.1940  -1.1456  -0.8536  -0.5192  -0.3167  -0.2945  -0.2445  -0.1832
     0.0429   0.1437   0.3787   0.4417   0.6379   0.8214   0.9911   1.0106
     1.1607   1.2357   1.2884   1.5776   1.6706   1.6980   1.9312   2.0924

          k = 0.1250-0.6495 0.0000 (192967 PWs)   bands (ev):

   -53.6137 -25.5460 -25.5293 -25.5275  -9.8073  -8.7833  -8.6839  -8.6831
    -7.9392  -7.6681  -7.6634  -7.5685  -7.1395  -6.9256  -6.8301  -6.5576
    -6.0371  -6.0256  -5.8239  -5.2993  -4.9446  -4.9283  -4.6408  -4.2131
    -3.8528  -3.8265  -3.6590  -3.5613  -3.2057  -3.1211  -2.7759  -2.5992
    -2.5403  -2.3794  -2.1741  -2.1134  -2.1044  -1.9360  -1.5067  -1.4591
    -1.4413  -1.1966  -1.0266  -0.7932  -0.7757  -0.5986  -0.5520  -0.1493
    -0.0330   0.1216   0.1412   0.1778   0.4027   0.7186   0.9424   1.0151
     1.0775   1.2298   1.5056   1.5392   1.5619   1.6660   1.7033   2.0787

          k = 0.1250-0.5052 0.0000 (192912 PWs)   bands (ev):

   -53.6137 -25.5460 -25.5293 -25.5275 -10.0583  -9.0329  -8.9324  -8.1873
    -8.1864  -7.9133  -7.3873  -7.1739  -7.1697  -7.0758  -6.3403  -6.2768
    -6.0682  -5.5490  -5.5366  -5.3380  -5.1838  -4.8823  -4.4537  -4.0828
    -3.8978  -3.7396  -3.4445  -3.3719  -3.3455  -3.1192  -3.0520  -2.7775
    -2.6121  -2.3448  -2.1736  -2.1701  -2.1185  -2.1069  -1.7171  -1.6733
    -1.5736  -1.2613  -1.0482  -1.0090  -0.9932  -0.8076  -0.7790  -0.4760
    -0.2745  -0.2496  -0.0819   0.0013   0.1735   0.6155   0.8318   0.9161
     1.1620   1.2560   1.3083   1.3468   1.4692   1.5487   1.8689   2.0581

          k = 0.1250-0.3608 0.0000 (192891 PWs)   bands (ev):

   -53.6137 -25.5460 -25.5293 -25.5275 -10.2468  -9.2204  -9.1194  -8.3729
    -8.0993  -7.6303  -7.5732  -7.3567  -6.6188  -6.5238  -6.4609  -5.7915
    -5.7261  -5.5207  -5.3697  -5.0638  -4.9949  -4.7946  -4.2658  -4.0774
    -3.9795  -3.9179  -3.6240  -3.5406  -3.2307  -3.0088  -2.9577  -2.9105
    -2.8203  -2.7872  -2.5527  -2.3493  -2.2946  -1.9522  -1.8948  -1.7551
    -1.7428  -1.3275  -1.2018  -1.1456  -0.9871  -0.9532  -0.8746  -0.5134
    -0.2609  -0.2401  -0.1873  -0.1525   0.0446   0.4512   0.6538   0.7607
     0.9894   1.1255   1.1685   1.1945   1.3302   1.3840   1.6975   1.8750

          k = 0.1250-0.2165 0.0000 (192926 PWs)   bands (ev):

   -53.6137 -25.5460 -25.5293 -25.5275 -10.3726  -9.3455  -9.2442  -8.4971
    -8.2234  -7.6975  -7.4801  -7.0144  -6.5842  -6.0071  -5.9132  -5.8483
    -5.4936  -5.1850  -5.1849  -4.9158  -4.8210  -4.3979  -4.3811  -4.1976
    -4.1973  -3.8339  -3.7438  -3.7435  -3.6606  -3.3488  -3.0750  -3.0299
    -2.9048  -2.9041  -2.4689  -2.4678  -2.2985  -2.2465  -2.0691  -2.0102
    -1.9630  -1.3169  -1.0753  -1.0678  -1.0264  -0.9880  -0.6446  -0.3912
    -0.3024  -0.2661  -0.2606  -0.0908  -0.0083   0.3750   0.3914   0.6334
     1.0187   1.0483   1.0924   1.0992   1.2114   1.2421   1.2703   1.5647

          k = 0.1250-0.0722 0.0000 (192973 PWs)   bands (ev):

   -53.6137 -25.5460 -25.5293 -25.5275 -10.4355  -9.4081  -9.3067  -8.5592
    -8.2855  -7.7596  -7.5419  -6.6457  -6.3401  -5.9096  -5.6087  -5.5556
    -5.3375  -5.2460  -5.2451  -4.6126  -4.5499  -4.4935  -4.4487  -4.2593
    -4.2557  -3.8043  -3.8031  -3.7381  -3.7170  -3.5698  -3.5322  -3.1352
    -3.0261  -2.9636  -2.9622  -2.5308  -2.5246  -2.1666  -2.0705  -1.6579
    -1.5739  -1.4189  -1.3727  -1.1342  -1.1251  -0.9199  -0.5707  -0.4438
    -0.3234  -0.3120  -0.2135   0.2007   0.2451   0.3650   0.4385   0.5747
     0.7250   0.9548   0.9723   1.0374   1.0517   1.0574   1.2141   1.5102

          k = 0.2083 0.0722 0.0000 (192934 PWs)   bands (ev):

   -53.6137 -25.5460 -25.5293 -25.5275 -10.3935  -9.5151  -9.3663  -8.4927
    -8.2695  -7.7181  -7.2541  -6.8511  -6.2994  -5.6903  -5.6265  -5.5681
    -5.5127  -5.4473  -5.2970  -4.7236  -4.6973  -4.6501  -4.5721  -4.4555
    -4.2408  -3.7435  -3.6952  -3.5297  -3.4439  -3.3068  -3.2850  -3.1305
    -3.0912  -2.9901  -2.9583  -2.4476  -2.2814  -2.2627  -2.2008  -1.7889
    -1.6605  -1.4567  -1.1138  -1.0497  -0.9485  -0.9128  -0.8740  -0.5047
    -0.4704  -0.4351  -0.3736   0.0386   0.1342   0.4334   0.5703   0.6204
     0.7887   0.8078   0.8806   1.0222   1.2950   1.3875   1.4209   1.5443

          k = 0.2083 0.2165 0.0000 (192892 PWs)   bands (ev):

   -53.6137 -25.5460 -25.5293 -25.5275 -10.3306  -9.4526  -9.3037  -8.4305
    -8.2075  -7.6559  -7.1924  -6.9734  -6.7894  -6.1165  -5.9663  -5.6294
    -5.5653  -5.4506  -5.1168  -4.9032  -4.7809  -4.6369  -4.5887  -4.3512
    -3.9582  -3.9030  -3.7947  -3.5316  -3.3836  -3.2475  -3.0709  -3.0322
    -3.0147  -2.7693  -2.4209  -2.3008  -2.2491  -2.2257  -2.2155  -2.1914
    -1.8677  -1.3975  -1.2293  -1.0980  -1.0470  -0.8163  -0.4405  -0.3493
    -0.3186  -0.2656  -0.0563  -0.0249   0.0672   0.2351   0.3300   0.4931
     0.8354   0.8502   0.8974   1.0311   1.0807   1.2231   1.4755   1.5939

          k = 0.2083 0.3608 0.0000 (192925 PWs)   bands (ev):

   -53.6137 -25.5460 -25.5293 -25.5275 -10.2049  -9.3276  -9.1786  -8.3062
    -8.0836  -7.5892  -7.5317  -7.0693  -6.7281  -6.6662  -6.5777  -5.7231
    -5.5080  -5.5077  -5.4433  -5.3269  -4.9545  -4.5165  -4.5142  -4.4662
    -4.1150  -3.9402  -3.2646  -3.1299  -3.1283  -3.0104  -2.9577  -2.9484
    -2.9442  -2.9105  -2.7819  -2.1891  -2.1059  -2.0996  -2.0841  -2.0767
    -1.7170  -1.3827  -0.9408  -0.7806  -0.7080  -0.6989  -0.6803  -0.4877
    -0.3354  -0.3179  -0.3139  -0.1987   0.1894   0.4303   0.6013   0.6236
     0.7627   0.9647   1.1895   1.2488   1.5439   1.5701   1.5946   1.6919

          k = 0.2083 0.5052 0.0000 (192924 PWs)   bands (ev):

   -53.6137 -25.5460 -25.5293 -25.5275 -10.0164  -9.1403  -8.9912  -8.1456
    -8.1199  -7.8980  -7.3459  -7.2809  -7.1308  -6.8847  -6.4816  -6.2718
    -6.0553  -5.5021  -5.3257  -5.2606  -5.1415  -5.0552  -4.6539  -4.3356
    -4.2829  -3.5234  -3.4670  -3.3182  -3.0836  -3.0452  -2.9515  -2.7750
    -2.7342  -2.5613  -2.5152  -2.2598  -2.1099  -1.9265  -1.9074  -1.5023
    -1.1896  -1.0907  -1.0267  -0.9874  -0.8527  -0.7557  -0.5348  -0.3523
    -0.1804  -0.1613  -0.1495  -0.0249   0.1566   0.4435   0.7750   1.0626
     1.1423   1.2608   1.3653   1.4205   1.6045   1.6163   1.7030   1.8204

          k = 0.2083 0.6495 0.0000 (192946 PWs)   bands (ev):

   -53.6137 -25.5460 -25.5293 -25.5275  -9.7656  -8.8910  -8.7417  -8.6421
    -7.8720  -7.7744  -7.6508  -7.6244  -7.0982  -6.7621  -6.6391  -6.5441
    -6.2358  -5.9903  -5.5402  -5.1376  -5.0832  -5.0175  -4.8948  -4.0955
    -4.0408  -3.9990  -3.9354  -3.7968  -3.0268  -2.9670  -2.8469  -2.7152
    -2.5393  -2.4974  -2.1085  -1.8893  -1.6932  -1.6755  -1.6601  -1.5805
    -1.4409  -1.1772  -1.0682  -0.6893  -0.6295  -0.5338  -0.3238  -0.1804
     0.0076   0.0255   0.1987   0.2858   0.6186   0.9458   0.9933   1.0356
     1.1732   1.2099   1.3592   1.3646   1.3683   1.5740   1.7965   1.8600

          k = 0.2083 0.7939 0.0000 (192995 PWs)   bands (ev):

   -53.6137 -25.5460 -25.5293 -25.5275  -9.4526  -9.0780  -8.5799  -8.4304
    -8.2076  -8.0578  -7.5627  -7.3425  -7.1926  -6.9734  -6.7895  -6.4200
    -6.3326  -5.9663  -5.9292  -5.5627  -4.7809  -4.7153  -4.5890  -4.4193
    -4.3532  -4.2214  -3.7963  -3.7379  -3.4390  -3.3777  -2.5564  -2.4208
    -2.2506  -2.2268  -2.1927  -2.0699  -1.9117  -1.8482  -1.4011  -1.3816
    -1.1286  -1.0570  -1.0361  -0.3353  -0.2762  -0.2641  -0.2310   0.0656
     0.2154   0.3073   0.3294   0.4693   0.7959   0.8412   0.8451   0.9027
     1.0165   1.1909   1.2395   1.6213   1.6786   1.7562   1.7887   1.8194

          k = 0.2083-0.7939 0.0000 (192995 PWs)   bands (ev):

   -53.6137 -25.5460 -25.5293 -25.5275  -9.4526  -9.0780  -8.5799  -8.4304
    -8.2076  -8.0578  -7.5627  -7.3425  -7.1926  -6.9734  -6.7895  -6.4200
    -6.3326  -5.9663  -5.9292  -5.5627  -4.7809  -4.7153  -4.5890  -4.4193
    -4.3532  -4.2214  -3.7963  -3.7379  -3.4390  -3.3777  -2.5564  -2.4208
    -2.2506  -2.2268  -2.1927  -2.0699  -1.9117  -1.8482  -1.4011  -1.3816
    -1.1286  -1.0570  -1.0361  -0.3353  -0.2762  -0.2641  -0.2310   0.0656
     0.2154   0.3073   0.3294   0.4693   0.7959   0.8412   0.8451   0.9027
     1.0165   1.1909   1.2395   1.6213   1.6786   1.7562   1.7887   1.8194

          k = 0.2083-0.6495 0.0000 (192946 PWs)   bands (ev):

   -53.6137 -25.5460 -25.5293 -25.5275  -9.7656  -8.8910  -8.7417  -8.6421
    -7.8720  -7.7744  -7.6508  -7.6244  -7.0982  -6.7621  -6.6391  -6.5441
    -6.2358  -5.9903  -5.5402  -5.1376  -5.0832  -5.0175  -4.8948  -4.0955
    -4.0408  -3.9990  -3.9354  -3.7968  -3.0268  -2.9670  -2.8469  -2.7152
    -2.5393  -2.4974  -2.1085  -1.8893  -1.6932  -1.6755  -1.6601  -1.5805
    -1.4409  -1.1772  -1.0682  -0.6893  -0.6295  -0.5338  -0.3238  -0.1804
     0.0076   0.0255   0.1987   0.2858   0.6186   0.9458   0.9933   1.0356
     1.1732   1.2099   1.3592   1.3646   1.3683   1.5740   1.7965   1.8600

          k = 0.2083-0.5052 0.0000 (192924 PWs)   bands (ev):

   -53.6137 -25.5460 -25.5293 -25.5275 -10.0164  -9.1403  -8.9912  -8.1456
    -8.1199  -7.8980  -7.3459  -7.2809  -7.1308  -6.8847  -6.4816  -6.2718
    -6.0553  -5.5021  -5.3257  -5.2606  -5.1415  -5.0552  -4.6539  -4.3356
    -4.2829  -3.5234  -3.4670  -3.3182  -3.0836  -3.0452  -2.9515  -2.7750
    -2.7342  -2.5613  -2.5152  -2.2598  -2.1099  -1.9265  -1.9074  -1.5023
    -1.1896  -1.0907  -1.0267  -0.9874  -0.8527  -0.7557  -0.5348  -0.3523
    -0.1804  -0.1613  -0.1495  -0.0249   0.1566   0.4435   0.7750   1.0626
     1.1423   1.2608   1.3653   1.4205   1.6045   1.6163   1.7030   1.8204

          k = 0.2083-0.3608 0.0000 (192925 PWs)   bands (ev):

   -53.6137 -25.5460 -25.5293 -25.5275 -10.2049  -9.3276  -9.1786  -8.3062
    -8.0836  -7.5892  -7.5317  -7.0693  -6.7281  -6.6662  -6.5777  -5.7231
    -5.5080  -5.5077  -5.4433  -5.3269  -4.9545  -4.5165  -4.5142  -4.4662
    -4.1150  -3.9402  -3.2646  -3.1299  -3.1283  -3.0104  -2.9577  -2.9484
    -2.9442  -2.9105  -2.7819  -2.1891  -2.1059  -2.0996  -2.0841  -2.0767
    -1.7170  -1.3827  -0.9408  -0.7806  -0.7080  -0.6989  -0.6803  -0.4877
    -0.3354  -0.3179  -0.3139  -0.1987   0.1894   0.4303   0.6013   0.6236
     0.7627   0.9647   1.1895   1.2488   1.5439   1.5701   1.5946   1.6919

          k = 0.2083-0.2165 0.0000 (192892 PWs)   bands (ev):

   -53.6137 -25.5460 -25.5293 -25.5275 -10.3306  -9.4526  -9.3037  -8.4305
    -8.2075  -7.6559  -7.1924  -6.9734  -6.7894  -6.1165  -5.9663  -5.6294
    -5.5653  -5.4506  -5.1168  -4.9032  -4.7809  -4.6369  -4.5887  -4.3512
    -3.9582  -3.9030  -3.7947  -3.5316  -3.3836  -3.2475  -3.0709  -3.0322
    -3.0147  -2.7693  -2.4209  -2.3008  -2.2491  -2.2257  -2.2155  -2.1914
    -1.8677  -1.3975  -1.2293  -1.0980  -1.0470  -0.8163  -0.4405  -0.3493
    -0.3186  -0.2656  -0.0563  -0.0249   0.0672   0.2351   0.3300   0.4931
     0.8354   0.8502   0.8974   1.0311   1.0807   1.2231   1.4755   1.5939

          k = 0.2083-0.0722 0.0000 (192934 PWs)   bands (ev):

   -53.6137 -25.5460 -25.5293 -25.5275 -10.3935  -9.5151  -9.3663  -8.4927
    -8.2695  -7.7181  -7.2541  -6.8511  -6.2994  -5.6903  -5.6265  -5.5681
    -5.5127  -5.4473  -5.2970  -4.7236  -4.6973  -4.6501  -4.5721  -4.4555
    -4.2408  -3.7435  -3.6952  -3.5297  -3.4439  -3.3068  -3.2850  -3.1305
    -3.0912  -2.9901  -2.9583  -2.4476  -2.2814  -2.2627  -2.2008  -1.7889
    -1.6605  -1.4567  -1.1138  -1.0497  -0.9485  -0.9128  -0.8740  -0.5047
    -0.4704  -0.4351  -0.3736   0.0386   0.1342   0.4334   0.5703   0.6204
     0.7887   0.8078   0.8806   1.0222   1.2950   1.3875   1.4209   1.5443

          k = 0.2917 0.0722 0.0000 (192893 PWs)   bands (ev):

   -53.6137 -25.5460 -25.5293 -25.5275 -10.3306  -9.7029  -9.3037  -8.6794
    -7.9599  -7.6559  -7.0365  -6.9461  -6.2383  -6.1164  -5.6294  -5.5076
    -5.4557  -5.3172  -5.2365  -5.1169  -4.9033  -4.8353  -4.6347  -4.5126
    -3.9583  -3.9031  -3.6371  -3.5315  -3.2477  -3.1573  -3.0692  -3.0265
    -3.0149  -2.9378  -2.7692  -2.4415  -2.2971  -2.2180  -2.1769  -1.8677
    -1.7232  -1.2884  -1.2578  -1.2241  -1.0949  -0.8503  -0.8103  -0.5468
    -0.4369  -0.3449  -0.3080  -0.0555  -0.0225   0.2553   0.2963   0.4654
     0.8391   0.9141   1.0042   1.0464   1.0869   1.1996   1.2438   1.4740

          k = 0.2917 0.2165 0.0000 (192850 PWs)   bands (ev):

   -53.6137 -25.5460 -25.5293 -25.5275 -10.2677  -9.6403  -9.2411  -8.6171
    -7.8980  -7.5938  -6.9748  -6.9120  -6.8846  -6.2996  -6.0554  -5.9054
    -5.3941  -5.2979  -5.2563  -5.0564  -4.7739  -4.7207  -4.6028  -4.2917
    -4.1206  -3.7365  -3.7033  -3.6239  -3.4719  -3.1668  -3.0961  -2.9668
    -2.8152  -2.7098  -2.4962  -2.3832  -2.2598  -2.1676  -2.0836  -1.8095
    -1.7418  -1.7276  -1.3387  -1.0928  -1.0335  -0.7847  -0.6742  -0.2948
    -0.2263   0.0010   0.0096   0.1666   0.2246   0.2501   0.3154   0.3536
     0.5084   0.5842   0.7265   0.8636   1.0622   1.1043   1.3013   1.5404

          k = 0.2917 0.3608 0.0000 (192930 PWs)   bands (ev):

   -53.6137 -25.5460 -25.5293 -25.5275 -10.1420  -9.5151  -9.1161  -8.4926
    -7.7744  -7.5275  -7.4697  -6.9121  -6.8512  -6.7618  -6.5165  -5.9334
    -5.9056  -5.2705  -5.2046  -5.1347  -4.9354  -4.8941  -4.6510  -4.2937
    -4.2151  -3.8819  -3.4024  -3.3533  -3.2909  -2.9798  -2.9114  -2.8509
    -2.7372  -2.7131  -2.5911  -2.4589  -2.2717  -2.2268  -2.2076  -1.6927
    -1.5296  -1.4013  -0.9224  -0.6985  -0.6655  -0.6541  -0.5276  -0.4599
    -0.2472  -0.1693  -0.1552   0.1139   0.2395   0.2953   0.4315   0.4732
     0.5091   1.0413   1.1658   1.2068   1.2138   1.3786   1.4162   1.4637

          k = 0.2917 0.5052 0.0000 (192991 PWs)   bands (ev):

   -53.6137 -25.5460 -25.5293 -25.5275  -9.9537  -9.3276  -8.9288  -8.3061
    -8.0837  -7.5891  -7.4658  -7.2839  -7.0693  -6.6663  -6.5777  -6.4553
    -5.7508  -5.7506  -5.4411  -5.0848  -4.9527  -4.8348  -4.7539  -4.7536
    -4.4670  -3.9401  -3.2647  -3.1757  -3.1726  -3.0103  -2.9445  -2.7987
    -2.6909  -2.6605  -2.4135  -2.4132  -2.0890  -2.0774  -1.5214  -1.5162
    -1.3828  -0.9397  -0.7895  -0.7553  -0.7424  -0.6808  -0.4944  -0.3215
    -0.2281   0.0182   0.1898   0.2736   0.2795   0.3763   0.6049   0.6419
     0.9678   1.2438   1.3111   1.3428   1.3743   1.5856   1.8189   1.8918

          k = 0.2917 0.6495 0.0000 (192996 PWs)   bands (ev):

   -53.6137 -25.5460 -25.5293 -25.5275  -9.7029  -9.0779  -8.6794  -8.5799
    -8.0579  -7.9598  -7.5627  -7.3425  -7.0364  -6.9463  -6.4201  -6.3327
    -6.2383  -5.9291  -5.5074  -5.3196  -5.2367  -4.8385  -4.7104  -4.5129
    -4.4192  -4.2236  -3.7419  -3.6340  -3.4379  -3.1434  -2.9397  -2.5635
    -2.4342  -2.1769  -2.0700  -1.9118  -1.8506  -1.7244  -1.3892  -1.2879
    -1.2484  -1.1284  -1.0543  -0.8278  -0.5431  -0.3230  -0.2695  -0.2313
     0.2207   0.2708   0.3107   0.4658   0.8184   0.8510   0.8666   1.0154
     1.0883   1.1748   1.2081   1.2581   1.5564   1.6748   1.6900   1.7579

          k = 0.2917 0.7939 0.0000 (193052 PWs)   bands (ev):

   -53.6137 -25.5460 -25.5293 -25.5275  -9.3901  -9.0156  -8.7664  -8.3936
    -8.3682  -7.9959  -7.7482  -7.3775  -7.0348  -6.7279  -6.6665  -6.3585
    -6.1131  -6.0270  -5.7459  -5.6614  -5.2040  -4.8410  -4.5330  -4.4091
    -4.2126  -4.1655  -4.0491  -3.9200  -3.8530  -3.5579  -2.6483  -2.3061
    -2.2766  -2.1424  -1.9428  -1.8823  -1.7883  -1.5578  -1.5308  -1.2093
    -1.0878  -1.0051  -0.6727  -0.4468  -0.3977  -0.2073  -0.0412   0.1345
     0.3394   0.3718   0.5056   0.6537   0.7163   0.7300   0.8777   1.0591
     1.1085   1.1343   1.1950   1.3046   1.4646   1.6341   1.6626   1.8383

          k = 0.2917-0.7939 0.0000 (193052 PWs)   bands (ev):

   -53.6137 -25.5460 -25.5293 -25.5275  -9.3901  -9.0156  -8.7664  -8.3936
    -8.3682  -7.9959  -7.7482  -7.3775  -7.0348  -6.7279  -6.6665  -6.3585
    -6.1131  -6.0270  -5.7459  -5.6614  -5.2040  -4.8410  -4.5330  -4.4091
    -4.2126  -4.1655  -4.0491  -3.9200  -3.8530  -3.5579  -2.6483  -2.3061
    -2.2766  -2.1424  -1.9428  -1.8823  -1.7883  -1.5578  -1.5308  -1.2093
    -1.0878  -1.0051  -0.6727  -0.4468  -0.3977  -0.2073  -0.0412   0.1345
     0.3394   0.3718   0.5056   0.6537   0.7163   0.7300   0.8777   1.0591
     1.1085   1.1343   1.1950   1.3046   1.4646   1.6341   1.6626   1.8383

          k = 0.2917-0.6495 0.0000 (192996 PWs)   bands (ev):

   -53.6137 -25.5460 -25.5293 -25.5275  -9.7029  -9.0779  -8.6794  -8.5799
    -8.0579  -7.9598  -7.5627  -7.3425  -7.0364  -6.9463  -6.4201  -6.3327
    -6.2383  -5.9291  -5.5074  -5.3196  -5.2367  -4.8385  -4.7104  -4.5129
    -4.4192  -4.2236  -3.7419  -3.6340  -3.4379  -3.1434  -2.9397  -2.5635
    -2.4342  -2.1769  -2.0700  -1.9118  -1.8506  -1.7244  -1.3892  -1.2879
    -1.2484  -1.1284  -1.0543  -0.8278  -0.5431  -0.3230  -0.2695  -0.2313
     0.2207   0.2708   0.3107   0.4658   0.8184   0.8510   0.8666   1.0154
     1.0883   1.1748   1.2081   1.2581   1.5564   1.6748   1.6900   1.7579

          k = 0.2917-0.5052 0.0000 (192991 PWs)   bands (ev):

   -53.6137 -25.5460 -25.5293 -25.5275  -9.9537  -9.3276  -8.9288  -8.3061
    -8.0837  -7.5891  -7.4658  -7.2839  -7.0693  -6.6663  -6.5777  -6.4553
    -5.7508  -5.7506  -5.4411  -5.0848  -4.9527  -4.8348  -4.7539  -4.7536
    -4.4670  -3.9401  -3.2647  -3.1757  -3.1726  -3.0103  -2.9445  -2.7987
    -2.6909  -2.6605  -2.4135  -2.4132  -2.0890  -2.0774  -1.5214  -1.5162
    -1.3828  -0.9397  -0.7895  -0.7553  -0.7424  -0.6808  -0.4944  -0.3215
    -0.2281   0.0182   0.1898   0.2736   0.2795   0.3763   0.6049   0.6419
     0.9678   1.2438   1.3111   1.3428   1.3743   1.5856   1.8189   1.8918

          k = 0.2917-0.3608 0.0000 (192930 PWs)   bands (ev):

   -53.6137 -25.5460 -25.5293 -25.5275 -10.1420  -9.5151  -9.1161  -8.4926
    -7.7744  -7.5275  -7.4697  -6.9121  -6.8512  -6.7618  -6.5165  -5.9334
    -5.9056  -5.2705  -5.2046  -5.1347  -4.9354  -4.8941  -4.6510  -4.2937
    -4.2151  -3.8819  -3.4024  -3.3533  -3.2909  -2.9798  -2.9114  -2.8509
    -2.7372  -2.7131  -2.5911  -2.4589  -2.2717  -2.2268  -2.2076  -1.6927
    -1.5296  -1.4013  -0.9224  -0.6985  -0.6655  -0.6541  -0.5276  -0.4599
    -0.2472  -0.1693  -0.1552   0.1139   0.2395   0.2953   0.4315   0.4732
     0.5091   1.0413   1.1658   1.2068   1.2138   1.3786   1.4162   1.4637

          k = 0.2917-0.2165 0.0000 (192850 PWs)   bands (ev):

   -53.6137 -25.5460 -25.5293 -25.5275 -10.2677  -9.6403  -9.2411  -8.6171
    -7.8980  -7.5938  -6.9748  -6.9120  -6.8846  -6.2996  -6.0554  -5.9054
    -5.3941  -5.2979  -5.2563  -5.0564  -4.7739  -4.7207  -4.6028  -4.2917
    -4.1206  -3.7365  -3.7033  -3.6239  -3.4719  -3.1668  -3.0961  -2.9668
    -2.8152  -2.7098  -2.4962  -2.3832  -2.2598  -2.1676  -2.0836  -1.8095
    -1.7418  -1.7276  -1.3387  -1.0928  -1.0335  -0.7847  -0.6742  -0.2948
    -0.2263   0.0010   0.0096   0.1666   0.2246   0.2501   0.3154   0.3536
     0.5084   0.5842   0.7265   0.8636   1.0622   1.1043   1.3013   1.5404

          k = 0.2917-0.0722 0.0000 (192893 PWs)   bands (ev):

   -53.6137 -25.5460 -25.5293 -25.5275 -10.3306  -9.7029  -9.3037  -8.6794
    -7.9599  -7.6559  -7.0365  -6.9461  -6.2383  -6.1164  -5.6294  -5.5076
    -5.4557  -5.3172  -5.2365  -5.1169  -4.9033  -4.8353  -4.6347  -4.5126
    -3.9583  -3.9031  -3.6371  -3.5315  -3.2477  -3.1573  -3.0692  -3.0265
    -3.0149  -2.9378  -2.7692  -2.4415  -2.2971  -2.2180  -2.1769  -1.8677
    -1.7232  -1.2884  -1.2578  -1.2241  -1.0949  -0.8503  -0.8103  -0.5468
    -0.4369  -0.3449  -0.3080  -0.0555  -0.0225   0.2553   0.2963   0.4654
     0.8391   0.9141   1.0042   1.0464   1.0869   1.1996   1.2438   1.4740

          k = 0.3750 0.0722 0.0000 (192872 PWs)   bands (ev):

   -53.6137 -25.5460 -25.5293 -25.5275 -10.2468  -9.8700  -9.2203  -8.8456
    -7.6304  -7.5730  -7.2012  -6.6188  -6.5238  -6.1570  -5.7914  -5.5208
    -5.4268  -5.3720  -5.1562  -5.0639  -5.0044  -4.9894  -4.7946  -4.4331
    -4.0779  -3.9180  -3.6239  -3.5600  -3.2308  -2.9759  -2.9106  -2.8750
    -2.8233  -2.7870  -2.5958  -2.5535  -2.3483  -2.2940  -1.9521  -1.9422
    -1.7462  -1.6002  -1.4010  -0.9905  -0.9561  -0.8754  -0.6715  -0.6352
    -0.5467  -0.3273  -0.1900  -0.1691  -0.1510   0.1270   0.1732   0.4560
     0.6576   0.6804   0.7726   0.9913   1.0407   1.1858   1.3344   1.4368

          k = 0.3750 0.2165 0.0000 (192883 PWs)   bands (ev):

   -53.6137 -25.5460 -25.5293 -25.5275 -10.1839  -9.8073  -9.1578  -8.7832
    -7.5687  -7.5110  -7.1394  -6.8302  -6.5575  -6.4630  -6.4621  -5.8242
    -5.4624  -5.4575  -5.3098  -4.9434  -4.9284  -4.6408  -4.3103  -4.2515
    -4.2122  -3.8636  -3.8528  -3.6596  -3.3341  -3.2920  -3.2054  -2.9142
    -2.7639  -2.5373  -2.3795  -2.2367  -2.2346  -2.1105  -1.9374  -1.9322
    -1.6949  -1.6806  -1.3368  -1.0271  -0.9363  -0.9204  -0.6102  -0.5541
    -0.2752  -0.1072  -0.0291   0.1385   0.2249   0.3907   0.4641   0.5079
     0.5181   0.6355   0.7133   0.7270   0.7482   0.9462   1.0892   1.5614

          k = 0.3750 0.3608 0.0000 (192896 PWs)   bands (ev):

   -53.6137 -25.5460 -25.5293 -25.5275 -10.0583  -9.6820  -9.0328  -8.6586
    -7.4459  -7.4448  -7.3869  -7.0759  -7.0157  -6.4371  -6.4327  -6.3402
    -6.0682  -5.3385  -5.1868  -4.8826  -4.8270  -4.8083  -4.8058  -4.4529
    -3.8983  -3.8323  -3.7694  -3.7385  -3.4442  -2.8649  -2.8189  -2.7960
    -2.6572  -2.6420  -2.6106  -2.4211  -2.3386  -2.1702  -2.1178  -1.5720
    -1.4788  -1.2607  -0.8767  -0.8123  -0.7811  -0.5128  -0.4746  -0.2656
    -0.1601  -0.0272   0.0034   0.0174   0.1754   0.2848   0.3476   0.6204
     0.6650   0.8283   0.8390   0.8555   1.1993   1.2663   1.3449   1.3841

          k = 0.3750 0.5052 0.0000 (192945 PWs)   bands (ev):

   -53.6137 -25.5460 -25.5293 -25.5275  -9.8701  -9.4942  -8.8456  -8.4719
    -8.0012  -7.6302  -7.2605  -7.2012  -6.9873  -6.8305  -6.6187  -6.2513
    -6.1569  -5.4267  -5.3600  -5.1566  -5.0073  -4.9897  -4.6381  -4.6236
    -4.4330  -4.3396  -3.5599  -3.3624  -3.1838  -2.9081  -2.8780  -2.8330
    -2.6149  -2.5534  -2.4690  -2.2406  -2.0910  -1.9422  -1.6464  -1.6002
    -1.3995  -0.8682  -0.6561  -0.6364  -0.5417  -0.3264  -0.2958  -0.2083
    -0.1794   0.0316   0.1342   0.1862   0.3871   0.5164   0.6409   0.6652
     0.7754   1.0022   1.0214   1.2443   1.3465   1.4358   1.6022   1.8074

          k = 0.3750 0.6495 0.0000 (193025 PWs)   bands (ev):

   -53.6137 -25.5460 -25.5293 -25.5275  -9.6195  -9.2443  -8.5964  -8.4971
    -8.2233  -8.1249  -7.4804  -7.1105  -7.0145  -6.9538  -6.5840  -6.0070
    -5.9131  -5.9128  -5.8475  -5.4816  -4.9148  -4.9139  -4.8210  -4.7552
    -4.3958  -4.3805  -3.8340  -3.6604  -3.3262  -3.3215  -3.2961  -2.3814
    -2.2984  -2.2365  -2.0058  -1.9631  -1.7092  -1.7083  -1.3190  -1.1770
    -1.1697  -1.0260  -0.9645  -0.6441  -0.4238  -0.4118  -0.1059  -0.0109
     0.2530   0.3903   0.4121   0.5255   0.7351   0.8860   0.8968   1.0463
     1.1172   1.1420   1.1724   1.2326   1.4307   1.4413   1.4797   1.5492

          k = 0.3750 0.7939 0.0000 (193030 PWs)   bands (ev):

   -53.6137 -25.5460 -25.5293 -25.5275  -9.3068  -8.9330  -8.9320  -8.5592
    -8.2854  -7.9155  -7.9110  -7.5421  -6.7076  -6.6456  -6.3402  -6.2821
    -6.2708  -5.9087  -5.7021  -5.6085  -5.3376  -5.2443  -4.6127  -4.4501
    -4.2522  -4.1034  -4.0820  -4.0694  -3.7352  -3.7151  -3.0276  -2.6795
    -2.0913  -1.9532  -1.7463  -1.6988  -1.6406  -1.4179  -1.3603  -1.1126
    -1.0026  -0.9196  -0.5698  -0.5451  -0.2159   0.0271   0.0846   0.2005
     0.3558   0.3848   0.4981   0.5419   0.7219   0.7861   0.8963   0.9674
     1.0126   1.0804   1.1663   1.4707   1.4929   1.5153   1.5322   1.6382

          k = 0.3750-0.7939 0.0000 (193030 PWs)   bands (ev):

   -53.6137 -25.5460 -25.5293 -25.5275  -9.3068  -8.9330  -8.9320  -8.5592
    -8.2854  -7.9155  -7.9110  -7.5421  -6.7076  -6.6456  -6.3402  -6.2821
    -6.2708  -5.9087  -5.7021  -5.6085  -5.3376  -5.2443  -4.6127  -4.4501
    -4.2522  -4.1034  -4.0820  -4.0694  -3.7352  -3.7151  -3.0276  -2.6795
    -2.0913  -1.9532  -1.7463  -1.6988  -1.6406  -1.4179  -1.3603  -1.1126
    -1.0026  -0.9196  -0.5698  -0.5451  -0.2159   0.0271   0.0846   0.2005
     0.3558   0.3848   0.4981   0.5419   0.7219   0.7861   0.8963   0.9674
     1.0126   1.0804   1.1663   1.4707   1.4929   1.5153   1.5322   1.6382

          k = 0.3750-0.6495 0.0000 (193025 PWs)   bands (ev):

   -53.6137 -25.5460 -25.5293 -25.5275  -9.6195  -9.2443  -8.5964  -8.4971
    -8.2233  -8.1249  -7.4804  -7.1105  -7.0145  -6.9538  -6.5840  -6.0070
    -5.9131  -5.9128  -5.8475  -5.4816  -4.9148  -4.9139  -4.8210  -4.7552
    -4.3958  -4.3805  -3.8340  -3.6604  -3.3262  -3.3215  -3.2961  -2.3814
    -2.2984  -2.2365  -2.0058  -1.9631  -1.7092  -1.7083  -1.3190  -1.1770
    -1.1697  -1.0260  -0.9645  -0.6441  -0.4238  -0.4118  -0.1059  -0.0109
     0.2530   0.3903   0.4121   0.5255   0.7351   0.8860   0.8968   1.0463
     1.1172   1.1420   1.1724   1.2326   1.4307   1.4413   1.4797   1.5492

          k = 0.3750-0.5052 0.0000 (192945 PWs)   bands (ev):

   -53.6137 -25.5460 -25.5293 -25.5275  -9.8701  -9.4942  -8.8456  -8.4719
    -8.0012  -7.6302  -7.2605  -7.2012  -6.9873  -6.8305  -6.6187  -6.2513
    -6.1569  -5.4267  -5.3600  -5.1566  -5.0073  -4.9897  -4.6381  -4.6236
    -4.4330  -4.3396  -3.5599  -3.3624  -3.1838  -2.9081  -2.8780  -2.8330
    -2.6149  -2.5534  -2.4690  -2.2406  -2.0910  -1.9422  -1.6464  -1.6002
    -1.3995  -0.8682  -0.6561  -0.6364  -0.5417  -0.3264  -0.2958  -0.2083
    -0.1794   0.0316   0.1342   0.1862   0.3871   0.5164   0.6409   0.6652
     0.7754   1.0022   1.0214   1.2443   1.3465   1.4358   1.6022   1.8074

          k = 0.3750-0.3608 0.0000 (192896 PWs)   bands (ev):

   -53.6137 -25.5460 -25.5293 -25.5275 -10.0583  -9.6820  -9.0328  -8.6586
    -7.4459  -7.4448  -7.3869  -7.0759  -7.0157  -6.4371  -6.4327  -6.3402
    -6.0682  -5.3385  -5.1868  -4.8826  -4.8270  -4.8083  -4.8058  -4.4529
    -3.8983  -3.8323  -3.7694  -3.7385  -3.4442  -2.8649  -2.8189  -2.7960
    -2.6572  -2.6420  -2.6106  -2.4211  -2.3386  -2.1702  -2.1178  -1.5720
    -1.4788  -1.2607  -0.8767  -0.8123  -0.7811  -0.5128  -0.4746  -0.2656
    -0.1601  -0.0272   0.0034   0.0174   0.1754   0.2848   0.3476   0.6204
     0.6650   0.8283   0.8390   0.8555   1.1993   1.2663   1.3449   1.3841

          k = 0.3750-0.2165 0.0000 (192883 PWs)   bands (ev):

   -53.6137 -25.5460 -25.5293 -25.5275 -10.1839  -9.8073  -9.1578  -8.7832
    -7.5687  -7.5110  -7.1394  -6.8302  -6.5575  -6.4630  -6.4621  -5.8242
    -5.4624  -5.4575  -5.3098  -4.9434  -4.9284  -4.6408  -4.3103  -4.2515
    -4.2122  -3.8636  -3.8528  -3.6596  -3.3341  -3.2920  -3.2054  -2.9142
    -2.7639  -2.5373  -2.3795  -2.2367  -2.2346  -2.1105  -1.9374  -1.9322
    -1.6949  -1.6806  -1.3368  -1.0271  -0.9363  -0.9204  -0.6102  -0.5541
    -0.2752  -0.1072  -0.0291   0.1385   0.2249   0.3907   0.4641   0.5079
     0.5181   0.6355   0.7133   0.7270   0.7482   0.9462   1.0892   1.5614

          k = 0.3750-0.0722 0.0000 (192872 PWs)   bands (ev):

   -53.6137 -25.5460 -25.5293 -25.5275 -10.2468  -9.8700  -9.2203  -8.8456
    -7.6304  -7.5730  -7.2012  -6.6188  -6.5238  -6.1570  -5.7914  -5.5208
    -5.4268  -5.3720  -5.1562  -5.0639  -5.0044  -4.9894  -4.7946  -4.4331
    -4.0779  -3.9180  -3.6239  -3.5600  -3.2308  -2.9759  -2.9106  -2.8750
    -2.8233  -2.7870  -2.5958  -2.5535  -2.3483  -2.2940  -1.9521  -1.9422
    -1.7462  -1.6002  -1.4010  -0.9905  -0.9561  -0.8754  -0.6715  -0.6352
    -0.5467  -0.3273  -0.1900  -0.1691  -0.1510   0.1270   0.1732   0.4560
     0.6576   0.6804   0.7726   0.9913   1.0407   1.1858   1.3344   1.4368

          k = 0.4583 0.0722 0.0000 (192888 PWs)   bands (ev):

   -53.6137 -25.5460 -25.5293 -25.5275 -10.1422 -10.0162  -9.1161  -8.9912
    -7.4700  -7.3456  -7.2808  -6.9120  -6.2719  -6.0555  -5.9333  -5.9057
    -5.3260  -5.2712  -5.2045  -5.1411  -5.0552  -4.9349  -4.6532  -4.3339
    -4.2937  -4.2151  -3.4653  -3.3533  -3.2908  -2.9518  -2.8824  -2.7702
    -2.7307  -2.7150  -2.5911  -2.5135  -2.2599  -2.2334  -2.2088  -1.9230
    -1.6930  -1.5295  -1.5013  -1.0238  -0.9270  -0.8549  -0.6824  -0.5447
    -0.5239  -0.3164  -0.2318  -0.1577  -0.1192   0.0886   0.1141   0.1629
     0.3067   0.4452   1.0225   1.0435   1.0807   1.2090   1.4627   1.6074

          k = 0.4583 0.2165 0.0000 (192855 PWs)   bands (ev):

   -53.6137 -25.5460 -25.5293 -25.5275 -10.0793  -9.9535  -9.0537  -8.9288
    -7.4080  -7.2837  -7.2193  -6.8506  -6.7281  -6.6053  -6.2107  -5.8448
    -5.7228  -5.6013  -5.2090  -5.0791  -4.5928  -4.5412  -4.4220  -4.2336
    -4.1136  -3.9950  -3.9405  -3.6021  -3.5414  -3.4451  -2.9890  -2.8212
    -2.6684  -2.6587  -2.4549  -2.1755  -2.0762  -2.0537  -1.9467  -1.9110
    -1.5996  -1.4704  -1.3531  -1.1618  -0.9650  -0.8797  -0.6633  -0.4725
    -0.3564  -0.2463  -0.0636   0.1458   0.2200   0.2602   0.3619   0.3874
     0.4482   0.5705   0.8457   0.8766   1.0513   1.0919   1.1011   1.2081

          k = 0.4583 0.3608 0.0000 (192914 PWs)   bands (ev):

   -53.6137 -25.5460 -25.5293 -25.5275  -9.9538  -9.8281  -8.9288  -8.8040
    -7.3428  -7.2841  -7.2193  -7.1598  -7.0962  -6.7279  -6.3330  -6.2107
    -6.0884  -5.7228  -5.0861  -4.9562  -4.7133  -4.5928  -4.5410  -4.4718
    -4.1817  -4.1131  -3.7012  -3.6020  -3.5413  -3.2075  -2.7545  -2.7090
    -2.6619  -2.5662  -2.5423  -2.4527  -2.3371  -2.0585  -1.9461  -1.6816
    -1.3530  -0.9654  -0.9316  -0.8791  -0.8483  -0.6762  -0.3582  -0.2082
    -0.0731  -0.0634   0.0528   0.2145   0.2581   0.2701   0.3393   0.4678
     0.4910   0.4967   0.7752   1.0500   1.2022   1.2105   1.4855   1.6685

          k = 0.4583 0.5052 0.0000 (192934 PWs)   bands (ev):

   -53.6137 -25.5460 -25.5293 -25.5275  -9.7657  -9.6401  -8.7417  -8.6171
    -7.8982  -7.7742  -7.0985  -6.9746  -6.9119  -6.8846  -6.7619  -6.5441
    -5.9054  -5.5403  -5.2591  -5.1375  -5.0831  -4.9001  -4.7712  -4.7207
    -4.2914  -4.0937  -3.9335  -3.7364  -3.0885  -2.9654  -2.8154  -2.7151
    -2.5425  -2.5162  -2.3683  -2.2598  -2.1624  -1.8853  -1.7374  -1.6880
    -1.1781  -0.7945  -0.6750  -0.6730  -0.3242  -0.2342  -0.1837  -0.0175
     0.0152   0.0277   0.0771   0.2204   0.3182   0.4366   0.5133   0.5838
     0.6465   0.9716   1.0315   1.2847   1.3631   1.3684   1.5389   1.8524

          k = 0.4583 0.6495 0.0000 (193044 PWs)   bands (ev):

   -53.6137 -25.5460 -25.5293 -25.5275  -9.5153  -9.3899  -8.4927  -8.3938
    -8.3683  -8.2694  -7.3775  -7.2542  -6.8513  -6.7276  -6.6665  -6.2993
    -5.7463  -5.6616  -5.6236  -5.5679  -5.2973  -5.2040  -4.6557  -4.5722
    -4.5263  -4.2122  -4.0512  -3.6948  -3.5623  -3.4366  -2.9914  -2.6480
    -2.2879  -2.1324  -1.9331  -1.8825  -1.7887  -1.6577  -1.2330  -1.0869
    -1.0479  -1.0032  -0.9479  -0.4488  -0.4355  -0.3967   0.0347   0.1340
     0.2696   0.4259   0.5703   0.6512   0.6615   0.7408   0.7943   0.8197
     0.8809   1.0272   1.2980   1.3860   1.4434   1.4859   1.5566   1.5719

          k = 0.4583 0.7939 0.0000 (193019 PWs)   bands (ev):

   -53.6137 -25.5460 -25.5293 -25.5275  -9.2029  -9.0778  -8.8289  -8.7041
    -8.1820  -8.0579  -7.8100  -7.6863  -6.5434  -6.4200  -6.3604  -6.1743
    -6.0515  -5.9940  -5.9939  -5.6287  -5.3578  -4.9948  -4.9942  -4.6325
    -4.3506  -4.2219  -3.9832  -3.8567  -3.7523  -3.3977  -3.3971  -3.0454
    -1.9988  -1.8405  -1.6613  -1.6278  -1.4875  -1.3845  -1.3804  -1.1716
    -0.7590  -0.6757  -0.6746  -0.3259  -0.1851   0.1197   0.1203   0.2468
     0.2705   0.4035   0.4217   0.5484   0.6948   0.8089   0.9215   0.9568
     1.0390   1.1029   1.1094   1.1847   1.3480   1.3528   1.3795   1.5824

          k = 0.4583-0.7939 0.0000 (193019 PWs)   bands (ev):

   -53.6137 -25.5460 -25.5293 -25.5275  -9.2029  -9.0778  -8.8289  -8.7041
    -8.1820  -8.0579  -7.8100  -7.6863  -6.5434  -6.4200  -6.3604  -6.1743
    -6.0515  -5.9940  -5.9939  -5.6287  -5.3578  -4.9948  -4.9942  -4.6325
    -4.3506  -4.2219  -3.9832  -3.8567  -3.7523  -3.3977  -3.3971  -3.0454
    -1.9988  -1.8405  -1.6613  -1.6278  -1.4875  -1.3845  -1.3804  -1.1716
    -0.7590  -0.6757  -0.6746  -0.3259  -0.1851   0.1197   0.1203   0.2468
     0.2705   0.4035   0.4217   0.5484   0.6948   0.8089   0.9215   0.9568
     1.0390   1.1029   1.1094   1.1847   1.3480   1.3528   1.3795   1.5824

          k = 0.4583-0.6495 0.0000 (193044 PWs)   bands (ev):

   -53.6137 -25.5460 -25.5293 -25.5275  -9.5153  -9.3899  -8.4927  -8.3938
    -8.3683  -8.2694  -7.3775  -7.2542  -6.8513  -6.7276  -6.6665  -6.2993
    -5.7463  -5.6616  -5.6236  -5.5679  -5.2973  -5.2040  -4.6557  -4.5722
    -4.5263  -4.2122  -4.0512  -3.6948  -3.5623  -3.4366  -2.9914  -2.6480
    -2.2879  -2.1324  -1.9331  -1.8825  -1.7887  -1.6577  -1.2330  -1.0869
    -1.0479  -1.0032  -0.9479  -0.4488  -0.4355  -0.3967   0.0347   0.1340
     0.2696   0.4259   0.5703   0.6512   0.6615   0.7408   0.7943   0.8197
     0.8809   1.0272   1.2980   1.3860   1.4434   1.4859   1.5566   1.5719

          k = 0.4583-0.5052 0.0000 (192934 PWs)   bands (ev):

   -53.6137 -25.5460 -25.5293 -25.5275  -9.7657  -9.6401  -8.7417  -8.6171
    -7.8982  -7.7742  -7.0985  -6.9746  -6.9119  -6.8846  -6.7619  -6.5441
    -5.9054  -5.5403  -5.2591  -5.1375  -5.0831  -4.9001  -4.7712  -4.7207
    -4.2914  -4.0937  -3.9335  -3.7364  -3.0885  -2.9654  -2.8154  -2.7151
    -2.5425  -2.5162  -2.3683  -2.2598  -2.1624  -1.8853  -1.7374  -1.6880
    -1.1781  -0.7945  -0.6750  -0.6730  -0.3242  -0.2342  -0.1837  -0.0175
     0.0152   0.0277   0.0771   0.2204   0.3182   0.4366   0.5133   0.5838
     0.6465   0.9716   1.0315   1.2847   1.3631   1.3684   1.5389   1.8524

          k = 0.4583-0.3608 0.0000 (192914 PWs)   bands (ev):

   -53.6137 -25.5460 -25.5293 -25.5275  -9.9538  -9.8281  -8.9288  -8.8040
    -7.3428  -7.2841  -7.2193  -7.1598  -7.0962  -6.7279  -6.3330  -6.2107
    -6.0884  -5.7228  -5.0861  -4.9562  -4.7133  -4.5928  -4.5410  -4.4718
    -4.1817  -4.1131  -3.7012  -3.6020  -3.5413  -3.2075  -2.7545  -2.7090
    -2.6619  -2.5662  -2.5423  -2.4527  -2.3371  -2.0585  -1.9461  -1.6816
[...]

     atom    1 type  1   force =     0.00001301   -0.00000000   -0.00164976
     atom    2 type  1   force =     0.00088773   -0.00000000   -0.00395084
     atom    3 type  1   force =    -0.00070335   -0.00000000    0.00446905
     atom    4 type  1   force =    -0.00007630   -0.00000000    0.00100136
     atom    5 type  1   force =     0.00074321   -0.00000000    0.00462459
     atom    6 type  1   force =     0.00003266   -0.00000000    0.00330516
     atom    7 type  1   force =    -0.00082677    0.00000000   -0.00427380
     atom    8 type  1   force =    -0.00004453    0.00012421    0.00456822
     atom    9 type  1   force =     0.00070601   -0.00036943    0.00223334
     atom   10 type  1   force =    -0.00029828   -0.00002287   -0.00350263
     atom   11 type  1   force =     0.00047371    0.00004249   -0.00487502
     atom   12 type  1   force =     0.00038194    0.00024744   -0.00465676
     atom   13 type  1   force =    -0.00023487    0.00023849   -0.00490909
     atom   14 type  1   force =    -0.00099865   -0.00008980    0.00250143
     atom   15 type  1   force =     0.00032868    0.00041306    0.00294381
     atom   16 type  1   force =    -0.00004453   -0.00012421    0.00456822
     atom   17 type  1   force =     0.00070601    0.00036943    0.00223334
     atom   18 type  1   force =    -0.00029828    0.00002287   -0.00350263
     atom   19 type  1   force =     0.00047371   -0.00004249   -0.00487502
     atom   20 type  1   force =     0.00038194   -0.00024744   -0.00465676
     atom   21 type  1   force =    -0.00023487   -0.00023849   -0.00490909
     atom   22 type  1   force =    -0.00099865    0.00008980    0.00250143
     atom   23 type  1   force =     0.00032868   -0.00041306    0.00294381
     atom   24 type  1   force =     0.00006017    0.00000000    0.00454737
     atom   25 type  1   force =     0.00041950    0.00000000    0.00323533
     atom   26 type  1   force =    -0.00076361    0.00000000   -0.00454280
     atom   27 type  1   force =    -0.00057732   -0.00000000   -0.00813374
     atom   28 type  1   force =     0.00053937   -0.00000000   -0.00370624
     atom   29 type  1   force =     0.00023332   -0.00000000   -0.00198951
     atom   30 type  1   force =     0.00005938    0.00000000    0.00159209
     atom   31 type  1   force =    -0.00065292    0.00000000    0.00302038
     atom   32 type  1   force =    -0.00002155   -0.00000000    0.01501304
     atom   33 type  2   force =     0.00000546    0.00000000   -0.00116827
     The non-local contrib.  to forces
     atom    1 type  1   force =     0.00034738    0.00000000   -0.03717396
     atom    2 type  1   force =    -0.00150280   -0.00000000   -0.00346735
     atom    3 type  1   force =     0.00097535    0.00000000    0.00653864
     atom    4 type  1   force =    -0.00016285    0.00000000    0.03794853
     atom    5 type  1   force =    -0.00085552   -0.00000000    0.00753133
     atom    6 type  1   force =     0.00002340    0.00000000    0.04176091
     atom    7 type  1   force =     0.00124891    0.00000000   -0.00500885
     atom    8 type  1   force =     0.00164919    0.00021394    0.00737796
     atom    9 type  1   force =     0.00012714    0.00004801    0.03958248
     atom   10 type  1   force =    -0.00025660    0.00049254   -0.00390970
     atom   11 type  1   force =    -0.00066282   -0.00033163   -0.03883859
     atom   12 type  1   force =     0.00006402   -0.00019375   -0.00605804
     atom   13 type  1   force =     0.00027601   -0.00052690   -0.03801302
     atom   14 type  1   force =    -0.00029011    0.00001858    0.03886634
     atom   15 type  1   force =    -0.00136276    0.00012639    0.00369372
     atom   16 type  1   force =     0.00164919   -0.00021394    0.00737796
     atom   17 type  1   force =     0.00012714   -0.00004801    0.03958248
     atom   18 type  1   force =    -0.00025660   -0.00049254   -0.00390970
     atom   19 type  1   force =    -0.00066282    0.00033163   -0.03883859
     atom   20 type  1   force =     0.00006402    0.00019375   -0.00605804
     atom   21 type  1   force =     0.00027601    0.00052690   -0.03801302
     atom   22 type  1   force =    -0.00029011   -0.00001858    0.03886634
     atom   23 type  1   force =    -0.00136276   -0.00012639    0.00369372
     atom   24 type  1   force =    -0.00148380    0.00000000    0.00715827
     atom   25 type  1   force =    -0.00032022   -0.00000000    0.04079592
     atom   26 type  1   force =     0.00030819   -0.00000000   -0.00561487
     atom   27 type  1   force =     0.00009183    0.00000000   -0.04245327
     atom   28 type  1   force =    -0.00088259   -0.00000000   -0.00424855
     atom   29 type  1   force =     0.00072670    0.00000000   -0.03667081
     atom   30 type  1   force =     0.00004578    0.00000000    0.03752308
     atom   31 type  1   force =     0.00136984   -0.00000000    0.00389049
     atom   32 type  1   force =    -0.00015990   -0.00000000    0.01168557
     atom   33 type  2   force =    -0.00001622    0.00000000   -0.33628193
     The ionic contribution  to forces
     atom    1 type  1   force =    -0.00000000   -0.00000000   -8.37606502
     atom    2 type  1   force =    -0.02536111   -0.00000000    3.95345377
     atom    3 type  1   force =     0.11081009   -0.00000000   -1.94142688
     atom    4 type  1   force =    -0.00000006   -0.00000000    9.82567551
     atom    5 type  1   force =    -0.11081017   -0.00000000   -2.04750200
     atom    6 type  1   force =     0.00000077   -0.00000000    9.83912590
     atom    7 type  1   force =     0.02536116    0.00000000    3.92595344
     atom    8 type  1   force =     0.06032958    0.00481562   -2.09630161
     atom    9 type  1   force =    -0.00667348    0.00006960    9.83234840
     atom   10 type  1   force =     0.01487576    0.00129928    3.96558533
     atom   11 type  1   force =    -0.54905601    0.11523895   -7.97428501
     atom   12 type  1   force =    -0.01443416   -0.00053435    3.91484010
     atom   13 type  1   force =     0.54905516   -0.11523890   -7.97428441
     atom   14 type  1   force =     0.00667272   -0.00006960    9.83234754
     atom   15 type  1   force =    -0.06886813   -0.01960496   -1.87323836
     atom   16 type  1   force =     0.06032958   -0.00481562   -2.09630161
     atom   17 type  1   force =    -0.00667348   -0.00006960    9.83234840
     atom   18 type  1   force =     0.01487576   -0.00129928    3.96558533
     atom   19 type  1   force =    -0.54905601   -0.11523895   -7.97428501
     atom   20 type  1   force =    -0.01443416    0.00053435    3.91484010
     atom   21 type  1   force =     0.54905516    0.11523890   -7.97428441
     atom   22 type  1   force =     0.00667272    0.00006960    9.83234754
     atom   23 type  1   force =    -0.06886813    0.01960496   -1.87323836
     atom   24 type  1   force =    -0.10383394   -0.00000000   -2.06024273
     atom   25 type  1   force =     0.00000077   -0.00000000    9.83893237
     atom   26 type  1   force =     0.02495071    0.00000000    3.92466820
     atom   27 type  1   force =     0.00000071   -0.00000000   -7.59590775
     atom   28 type  1   force =    -0.02583392   -0.00000000    3.95575694
     atom   29 type  1   force =    -0.00000000   -0.00000000   -8.35266187
     atom   30 type  1   force =    -0.00000006    0.00000000    9.82576353
     atom   31 type  1   force =     0.12091112    0.00000000   -1.90929750
     atom   32 type  1   force =     0.00000071    0.00000000   -6.74874263
     atom   33 type  2   force =     0.00000032   -0.00000000  -31.31150724
     The local contribution  to forces
     atom    1 type  1   force =    -0.00031141    0.00000000    8.40059444
     atom    2 type  1   force =     0.02764186    0.00000000   -3.96089790
     atom    3 type  1   force =    -0.11241999   -0.00000000    1.93292445
     atom    4 type  1   force =     0.00007706   -0.00000000   -9.86518051
     atom    5 type  1   force =     0.11234773    0.00000000    2.03823070
     atom    6 type  1   force =     0.00000937    0.00000000   -9.87987136
     atom    7 type  1   force =    -0.02734474    0.00000000   -3.93227866
     atom    8 type  1   force =    -0.06191189   -0.00489183    2.08711766
     atom    9 type  1   force =     0.00726095   -0.00048266   -9.87213814
     atom   10 type  1   force =    -0.01493527   -0.00178163   -3.97217741
     atom   11 type  1   force =     0.55015303   -0.11488645    7.99713867
     atom   12 type  1   force =     0.01475542    0.00096046   -3.92056361
     atom   13 type  1   force =    -0.54955374    0.11596734    7.99633210
     atom   14 type  1   force =    -0.00739964   -0.00003686   -9.87120001
     atom   15 type  1   force =     0.07046459    0.01989522    1.86589018
     atom   16 type  1   force =    -0.06191189    0.00489183    2.08711766
     atom   17 type  1   force =     0.00726095    0.00048266   -9.87213814
     atom   18 type  1   force =    -0.01493527    0.00178163   -3.97217741
     atom   19 type  1   force =     0.55015303    0.11488645    7.99713867
     atom   20 type  1   force =     0.01475542   -0.00096046   -3.92056361
     atom   21 type  1   force =    -0.54955374   -0.11596734    7.99633210
     atom   22 type  1   force =    -0.00739964    0.00003686   -9.87120001
     atom   23 type  1   force =     0.07046459   -0.01989522    1.86589018
     atom   24 type  1   force =     0.10528044   -0.00000000    2.05124379
     atom   25 type  1   force =     0.00071426    0.00000000   -9.87884396
     atom   26 type  1   force =    -0.02599507    0.00000000   -3.93069345
     atom   27 type  1   force =    -0.00066010   -0.00000000    7.61886318
     atom   28 type  1   force =     0.02719202    0.00000000   -3.96223351
     atom   29 type  1   force =    -0.00044730   -0.00000000    8.37638436
     atom   30 type  1   force =     0.00001858   -0.00000000   -9.86427944
     atom   31 type  1   force =    -0.12283749    0.00000000    1.90184109
     atom   32 type  1   force =     0.00012730   -0.00000000    6.74474030
     atom   33 type  2   force =     0.00002132    0.00000000   31.62619048
     The core correction contribution to forces
     atom    1 type  1   force =    -0.00002267   -0.00000000    0.00419823
     atom    2 type  1   force =     0.00010503    0.00000000    0.00016532
     atom    3 type  1   force =    -0.00006692   -0.00000000   -0.00036070
     atom    4 type  1   force =     0.00001141   -0.00000000   -0.00424649
     atom    5 type  1   force =     0.00005953    0.00000000   -0.00042688
     atom    6 type  1   force =    -0.00000265    0.00000000   -0.00451064
     atom    7 type  1   force =    -0.00008741   -0.00000000    0.00026483
     atom    8 type  1   force =    -0.00010910   -0.00001330   -0.00041778
     atom    9 type  1   force =    -0.00001130   -0.00000427   -0.00436238
     atom   10 type  1   force =     0.00001813   -0.00003293    0.00020339
     atom   11 type  1   force =     0.00003792    0.00002162    0.00431302
     atom   12 type  1   force =    -0.00000372    0.00001478    0.00032998
     atom   13 type  1   force =    -0.00001063    0.00003697    0.00425853
     atom   14 type  1   force =     0.00002103   -0.00000196   -0.00431411
     atom   15 type  1   force =     0.00009248   -0.00000369   -0.00019479
     atom   16 type  1   force =    -0.00010910    0.00001330   -0.00041778
     atom   17 type  1   force =    -0.00001130    0.00000427   -0.00436238
     atom   18 type  1   force =     0.00001813    0.00003293    0.00020339
     atom   19 type  1   force =     0.00003792   -0.00002162    0.00431302
     atom   20 type  1   force =    -0.00000372   -0.00001478    0.00032998
     atom   21 type  1   force =    -0.00001063   -0.00003697    0.00425853
     atom   22 type  1   force =     0.00002103    0.00000196   -0.00431411
     atom   23 type  1   force =     0.00009248    0.00000369   -0.00019479
     atom   24 type  1   force =     0.00009576   -0.00000000   -0.00040325
     atom   25 type  1   force =     0.00002287    0.00000000   -0.00444944
     atom   26 type  1   force =    -0.00002266    0.00000000    0.00030178
     atom   27 type  1   force =    -0.00001014   -0.00000000    0.00456591
     atom   28 type  1   force =     0.00005922    0.00000000    0.00022364
     atom   29 type  1   force =    -0.00004581   -0.00000000    0.00416216
     atom   30 type  1   force =    -0.00000309   -0.00000000   -0.00421928
     atom   31 type  1   force =    -0.00009461   -0.00000000   -0.00020737
     atom   32 type  1   force =     0.00000998    0.00000000    0.00053170
     atom   33 type  2   force =     0.00000000    0.00000000    0.00000000
     The Hubbard contrib.    to forces
     atom    1 type  1   force =     0.00000000    0.00000000    0.00000000
     atom    2 type  1   force =     0.00000000    0.00000000    0.00000000
     atom    3 type  1   force =     0.00000000    0.00000000    0.00000000
     atom    4 type  1   force =     0.00000000    0.00000000    0.00000000
     atom    5 type  1   force =     0.00000000    0.00000000    0.00000000
     atom    6 type  1   force =     0.00000000    0.00000000    0.00000000
     atom    7 type  1   force =     0.00000000    0.00000000    0.00000000
     atom    8 type  1   force =     0.00000000    0.00000000    0.00000000
     atom    9 type  1   force =     0.00000000    0.00000000    0.00000000
     atom   10 type  1   force =     0.00000000    0.00000000    0.00000000
     atom   11 type  1   force =     0.00000000    0.00000000    0.00000000
     atom   12 type  1   force =     0.00000000    0.00000000    0.00000000
     atom   13 type  1   force =     0.00000000    0.00000000    0.00000000
     atom   14 type  1   force =     0.00000000    0.00000000    0.00000000
     atom   15 type  1   force =     0.00000000    0.00000000    0.00000000
     atom   16 type  1   force =     0.00000000    0.00000000    0.00000000
     atom   17 type  1   force =     0.00000000    0.00000000    0.00000000
     atom   18 type  1   force =     0.00000000    0.00000000    0.00000000
     atom   19 type  1   force =     0.00000000    0.00000000    0.00000000
     atom   20 type  1   force =     0.00000000    0.00000000    0.00000000
     atom   21 type  1   force =     0.00000000    0.00000000    0.00000000
     atom   22 type  1   force =     0.00000000    0.00000000    0.00000000
     atom   23 type  1   force =     0.00000000    0.00000000    0.00000000
     atom   24 type  1   force =     0.00000000    0.00000000    0.00000000
     atom   25 type  1   force =     0.00000000    0.00000000    0.00000000
     atom   26 type  1   force =     0.00000000    0.00000000    0.00000000
     atom   27 type  1   force =     0.00000000    0.00000000    0.00000000
     atom   28 type  1   force =     0.00000000    0.00000000    0.00000000
     atom   29 type  1   force =     0.00000000    0.00000000    0.00000000
     atom   30 type  1   force =     0.00000000    0.00000000    0.00000000
     atom   31 type  1   force =     0.00000000    0.00000000    0.00000000
     atom   32 type  1   force =     0.00000000    0.00000000    0.00000000
     atom   33 type  2   force =     0.00000000    0.00000000    0.00000000
     The SCF correction term to forces
     atom    1 type  1   force =    -0.00000030    0.00000000   -0.00000131
     atom    2 type  1   force =     0.00000475    0.00000000   -0.00000254
     atom    3 type  1   force =    -0.00000189    0.00000000   -0.00000431
     atom    4 type  1   force =    -0.00000187    0.00000000    0.00000647
     atom    5 type  1   force =     0.00000164   -0.00000000   -0.00000640
     atom    6 type  1   force =     0.00000178    0.00000000    0.00000250
     atom    7 type  1   force =    -0.00000469   -0.00000000   -0.00000242
     atom    8 type  1   force =    -0.00000232   -0.00000023   -0.00000587
     atom    9 type  1   force =     0.00000271   -0.00000011    0.00000512
     atom   10 type  1   force =    -0.00000032   -0.00000013   -0.00000210
     atom   11 type  1   force =     0.00000159   -0.00000000   -0.00000096
     atom   12 type  1   force =     0.00000036    0.00000030   -0.00000305
     atom   13 type  1   force =    -0.00000166   -0.00000002   -0.00000015
     atom   14 type  1   force =    -0.00000265    0.00000005    0.00000380
     atom   15 type  1   force =     0.00000249    0.00000010   -0.00000480
     atom   16 type  1   force =    -0.00000232    0.00000023   -0.00000587
     atom   17 type  1   force =     0.00000271    0.00000011    0.00000512
     atom   18 type  1   force =    -0.00000032    0.00000013   -0.00000210
     atom   19 type  1   force =     0.00000159    0.00000000   -0.00000096
     atom   20 type  1   force =     0.00000036   -0.00000030   -0.00000305
     atom   21 type  1   force =    -0.00000166    0.00000002   -0.00000015
     atom   22 type  1   force =    -0.00000265   -0.00000005    0.00000380
     atom   23 type  1   force =     0.00000249   -0.00000010   -0.00000480
     atom   24 type  1   force =     0.00000170    0.00000000   -0.00000657
     atom   25 type  1   force =     0.00000181   -0.00000000    0.00000257
     atom   26 type  1   force =    -0.00000478    0.00000000   -0.00000233
     atom   27 type  1   force =     0.00000037    0.00000000    0.00000031
     atom   28 type  1   force =     0.00000464   -0.00000000   -0.00000261
     atom   29 type  1   force =    -0.00000028   -0.00000000   -0.00000120
     atom   30 type  1   force =    -0.00000183   -0.00000000    0.00000634
     atom   31 type  1   force =    -0.00000180   -0.00000000   -0.00000419
     atom   32 type  1   force =     0.00000036   -0.00000000    0.00000024
     atom   33 type  2   force =     0.00000003   -0.00000000    0.00001130

     Total force =     0.026808     Total SCF correction =     0.000028

     Writing all to output data dir ./temp2/AlwithNa_0D0.save/

     init_run     :     20.07s CPU     14.24s WALL (       1 calls)
     electrons    :    684.07s CPU    432.63s WALL (       1 calls)
     forces       :     10.97s CPU      6.24s WALL (       1 calls)

     Called by init_run:
     wfcinit      :      9.77s CPU      6.66s WALL (       1 calls)
     potinit      :      4.30s CPU      2.28s WALL (       1 calls)
     hinit0       :      5.53s CPU      4.81s WALL (       1 calls)

     Called by electrons:
     c_bands      :    581.91s CPU    376.30s WALL (      34 calls)
     sum_band     :     93.72s CPU     49.11s WALL (      34 calls)
     v_of_rho     :      6.05s CPU      4.87s WALL (      35 calls)
     mix_rho      :      1.94s CPU      1.91s WALL (      34 calls)

     Called by c_bands:
     init_us_2    :     25.32s CPU     12.74s WALL (     420 calls)
     init_us_2:cp :     25.31s CPU     12.74s WALL (     420 calls)
     cegterg      :    484.01s CPU    306.39s WALL (     204 calls)

     Called by *egterg:
     cdiaghg      :      3.87s CPU      4.66s WALL (    1098 calls)
     h_psi        :    436.95s CPU    263.60s WALL (    1104 calls)
     g_psi        :      1.97s CPU      0.99s WALL (     894 calls)

     Called by h_psi:
     h_psi:calbec :     42.39s CPU     36.82s WALL (    1104 calls)
     vloc_psi     :    347.74s CPU    181.75s WALL (    1104 calls)
     add_vuspsi   :     42.90s CPU     43.01s WALL (    1104 calls)

     General routines
     calbec       :     43.78s CPU     38.09s WALL (    1128 calls)
     fft          :      2.79s CPU      3.31s WALL (     360 calls)
     ffts         :      0.18s CPU      0.21s WALL (      34 calls)
     fftw         :    312.42s CPU    164.78s WALL (   87050 calls)

     Parallel routines

     PWSCF        :  11m56.44s CPU   7m36.12s WALL


   This run was terminated on:  21:15:57  20Mar2025            

=------------------------------------------------------------------------------=
   JOB DONE.
=------------------------------------------------------------------------------=
