
     Program PWSCF v.7.2 starts on 20Mar2025 at 21:17:31 

     This program is part of the open-source Quantum ESPRESSO suite
     for quantum simulation of materials; please cite
         "P. Giannozzi et al., J. Phys.:Condens. Matter 21 395502 (2009);
         "P. Giannozzi et al., J. Phys.:Condens. Matter 29 465901 (2017);
         "P. Giannozzi et al., J. Chem. Phys. 152 154105 (2020);
          URL http://www.quantum-espresso.org", 
     in publications or presentations arising from this work. More details at
     http://www.quantum-espresso.org/quote

     Parallel version (MPI & OpenMP), running on     384 processor cores
     Number of MPI processes:               192
     Threads/MPI process:                     2

     MPI processes distributed on     8 nodes
     730701 MiB available memory on the printing compute node when the environment starts

     Reading input from Al111slabWithNa_0D008Ha.sc.in

     Current dimensions of program PWSCF are:
     Max number of different atomic species (ntypx) = 10
     Max number of k-points (npk) =  40000
     Max angular momentum in pseudopotentials (lmaxx) =  4

     K-points division:     npool     =      12
     R & G space division:  proc/nbgrp/npool/nimage =      16
     Subspace diagonalization in iterative solution of the eigenvalue problem:
     a serial algorithm will be used


     Parallelization info
     --------------------
     sticks:   dense  smooth     PW     G-vecs:    dense   smooth      PW
     Min         401     401    106                96479    96479   13202
     Max         402     402    107                96492    96492   13217
     Sum        6419    6419   1707              1543747  1543747  211325

     Using Slab Decomposition



     bravais-lattice index     =            0
     lattice parameter (alat)  =      18.6834  a.u.
     unit-cell volume          =   11425.3995 (a.u.)^3
     number of atoms/cell      =           33
     number of atomic types    =            2
     number of electrons       =       105.00
     number of Kohn-Sham states=           64
     kinetic-energy cutoff     =     100.0000  Ry
     charge density cutoff     =     400.0000  Ry
     scf convergence threshold =      1.0E-09
     mixing beta               =       0.7000
     number of iterations used =            8  plain     mixing
     Exchange-correlation= PBE
                           (   1   4   3   4   0   0   0)

     celldm(1)=  18.683402  celldm(2)=   0.000000  celldm(3)=   0.000000
     celldm(4)=   0.000000  celldm(5)=   0.000000  celldm(6)=   0.000000

     crystal axes: (cart. coord. in units of alat)
               a(1) = (   1.000000   0.000000   0.000000 )  
               a(2) = (   0.000000   0.577350   0.000000 )  
               a(3) = (   0.000000   0.000000   3.034340 )  

     reciprocal axes: (cart. coord. in units 2 pi/alat)
               b(1) = (  1.000000  0.000000  0.000000 )  
               b(2) = (  0.000000  1.732051  0.000000 )  
               b(3) = (  0.000000  0.000000  0.329561 )  


     PseudoPot. # 1 for Al read from file:
     ./Al.upf
     MD5 check sum: a92309766db89a6b54a5f8790cc4d69e
     Pseudo is Norm-conserving + core correction, Zval =  3.0
     Generated using ONCVPSP code by D. R. Hamann
     Using radial grid of 1876 points,  6 beta functions with: 
                l(1) =   0
                l(2) =   0
                l(3) =   1
                l(4) =   1
                l(5) =   2
                l(6) =   2

     PseudoPot. # 2 for Na read from file:
     ./Na.upf
     MD5 check sum: ed5af011864af3d1529ce3b51bbccf87
     Pseudo is Norm-conserving, Zval =  9.0
     Generated using ONCVPSP code by D. R. Hamann
     Using radial grid of 1992 points,  4 beta functions with: 
                l(1) =   0
                l(2) =   0
                l(3) =   1
                l(4) =   1

     atomic species   valence    mass     pseudopotential
        Al             3.00    26.00000     Al( 1.00)
        Na             9.00    23.00000     Na( 1.00)

     No symmetry found



   Cartesian axes

     site n.     atom                  positions (alat units)
         1           Al  tau(   1) = (   0.0000000   0.0000000   1.1636163  )
         2           Al  tau(   2) = (   0.3333333   0.0000000   1.6350208  )
         3           Al  tau(   3) = (   0.6666666   0.0000000   1.3993186  )
         4           Al  tau(   4) = (   0.0000000   0.0000000   1.8707232  )
         5           Al  tau(   5) = (   0.1666667   0.2886751   1.3993186  )
         6           Al  tau(   6) = (   0.5000000   0.2886751   1.8707232  )
         7           Al  tau(   7) = (   0.8333333   0.2886751   1.6350208  )
         8           Al  tau(   8) = (   0.9166667   0.4330127   1.3993186  )
         9           Al  tau(   9) = (   0.2500001   0.4330127   1.8707232  )
        10           Al  tau(  10) = (   0.5833333   0.4330127   1.6350208  )
        11           Al  tau(  11) = (   0.2500001   0.4330127   1.1636163  )
        12           Al  tau(  12) = (   0.0833334   0.1443376   1.6350208  )
        13           Al  tau(  13) = (   0.7500000   0.1443376   1.1636163  )
        14           Al  tau(  14) = (   0.7500000   0.1443376   1.8707232  )
        15           Al  tau(  15) = (   0.4166666   0.1443376   1.3993186  )
        16           Al  tau(  16) = (   0.9166667   0.1443376   1.3993186  )
        17           Al  tau(  17) = (   0.2500001   0.1443376   1.8707232  )
        18           Al  tau(  18) = (   0.5833333   0.1443376   1.6350208  )
        19           Al  tau(  19) = (   0.2500001   0.1443376   1.1636163  )
        20           Al  tau(  20) = (   0.0833334   0.4330127   1.6350208  )
        21           Al  tau(  21) = (   0.7500000   0.4330127   1.1636163  )
        22           Al  tau(  22) = (   0.7500000   0.4330127   1.8707232  )
        23           Al  tau(  23) = (   0.4166666   0.4330127   1.3993186  )
        24           Al  tau(  24) = (   0.1666667   0.0000000   1.3993186  )
        25           Al  tau(  25) = (   0.5000000   0.0000000   1.8707232  )
        26           Al  tau(  26) = (   0.8333333   0.0000000   1.6350208  )
        27           Al  tau(  27) = (   0.5000000   0.0000000   1.1636163  )
        28           Al  tau(  28) = (   0.3333333   0.2886751   1.6350208  )
        29           Al  tau(  29) = (   0.0000000   0.2886751   1.1636163  )
        30           Al  tau(  30) = (   0.0000000   0.2886751   1.8707232  )
        31           Al  tau(  31) = (   0.6666666   0.2886751   1.3993186  )
        32           Al  tau(  32) = (   0.5000000   0.2886751   1.1636163  )
        33           Na  tau(  33) = (   0.5000000   0.2886751   0.8799585  )

     number of k points=    72  Fermi-Dirac smearing, width (Ry)=  0.0032
                       cart. coord. in units 2pi/alat
        k(    1) = (   0.0416667   0.0721688   0.0000000), wk =   0.0277778
        k(    2) = (   0.0416667   0.2165063   0.0000000), wk =   0.0277778
        k(    3) = (   0.0416667   0.3608439   0.0000000), wk =   0.0277778
        k(    4) = (   0.0416667   0.5051815   0.0000000), wk =   0.0277778
        k(    5) = (   0.0416667   0.6495190   0.0000000), wk =   0.0277778
        k(    6) = (   0.0416667   0.7938566   0.0000000), wk =   0.0277778
        k(    7) = (   0.0416667  -0.7938566   0.0000000), wk =   0.0277778
        k(    8) = (   0.0416667  -0.6495190   0.0000000), wk =   0.0277778
        k(    9) = (   0.0416667  -0.5051815   0.0000000), wk =   0.0277778
        k(   10) = (   0.0416667  -0.3608439   0.0000000), wk =   0.0277778
        k(   11) = (   0.0416667  -0.2165063   0.0000000), wk =   0.0277778
        k(   12) = (   0.0416667  -0.0721688   0.0000000), wk =   0.0277778
        k(   13) = (   0.1250000   0.0721688   0.0000000), wk =   0.0277778
        k(   14) = (   0.1250000   0.2165063   0.0000000), wk =   0.0277778
        k(   15) = (   0.1250000   0.3608439   0.0000000), wk =   0.0277778
        k(   16) = (   0.1250000   0.5051815   0.0000000), wk =   0.0277778
        k(   17) = (   0.1250000   0.6495190   0.0000000), wk =   0.0277778
        k(   18) = (   0.1250000   0.7938566   0.0000000), wk =   0.0277778
        k(   19) = (   0.1250000  -0.7938566   0.0000000), wk =   0.0277778
        k(   20) = (   0.1250000  -0.6495190   0.0000000), wk =   0.0277778
        k(   21) = (   0.1250000  -0.5051815   0.0000000), wk =   0.0277778
        k(   22) = (   0.1250000  -0.3608439   0.0000000), wk =   0.0277778
        k(   23) = (   0.1250000  -0.2165063   0.0000000), wk =   0.0277778
        k(   24) = (   0.1250000  -0.0721688   0.0000000), wk =   0.0277778
        k(   25) = (   0.2083333   0.0721688   0.0000000), wk =   0.0277778
        k(   26) = (   0.2083333   0.2165063   0.0000000), wk =   0.0277778
        k(   27) = (   0.2083333   0.3608439   0.0000000), wk =   0.0277778
        k(   28) = (   0.2083333   0.5051815   0.0000000), wk =   0.0277778
        k(   29) = (   0.2083333   0.6495190   0.0000000), wk =   0.0277778
        k(   30) = (   0.2083333   0.7938566   0.0000000), wk =   0.0277778
        k(   31) = (   0.2083333  -0.7938566   0.0000000), wk =   0.0277778
        k(   32) = (   0.2083333  -0.6495190   0.0000000), wk =   0.0277778
        k(   33) = (   0.2083333  -0.5051815   0.0000000), wk =   0.0277778
        k(   34) = (   0.2083333  -0.3608439   0.0000000), wk =   0.0277778
        k(   35) = (   0.2083333  -0.2165063   0.0000000), wk =   0.0277778
        k(   36) = (   0.2083333  -0.0721688   0.0000000), wk =   0.0277778
        k(   37) = (   0.2916667   0.0721688   0.0000000), wk =   0.0277778
        k(   38) = (   0.2916667   0.2165063   0.0000000), wk =   0.0277778
        k(   39) = (   0.2916667   0.3608439   0.0000000), wk =   0.0277778
        k(   40) = (   0.2916667   0.5051815   0.0000000), wk =   0.0277778
        k(   41) = (   0.2916667   0.6495190   0.0000000), wk =   0.0277778
        k(   42) = (   0.2916667   0.7938566   0.0000000), wk =   0.0277778
        k(   43) = (   0.2916667  -0.7938566   0.0000000), wk =   0.0277778
        k(   44) = (   0.2916667  -0.6495190   0.0000000), wk =   0.0277778
        k(   45) = (   0.2916667  -0.5051815   0.0000000), wk =   0.0277778
        k(   46) = (   0.2916667  -0.3608439   0.0000000), wk =   0.0277778
        k(   47) = (   0.2916667  -0.2165063   0.0000000), wk =   0.0277778
        k(   48) = (   0.2916667  -0.0721688   0.0000000), wk =   0.0277778
        k(   49) = (   0.3750000   0.0721688   0.0000000), wk =   0.0277778
        k(   50) = (   0.3750000   0.2165063   0.0000000), wk =   0.0277778
        k(   51) = (   0.3750000   0.3608439   0.0000000), wk =   0.0277778
        k(   52) = (   0.3750000   0.5051815   0.0000000), wk =   0.0277778
        k(   53) = (   0.3750000   0.6495190   0.0000000), wk =   0.0277778
        k(   54) = (   0.3750000   0.7938566   0.0000000), wk =   0.0277778
        k(   55) = (   0.3750000  -0.7938566   0.0000000), wk =   0.0277778
        k(   56) = (   0.3750000  -0.6495190   0.0000000), wk =   0.0277778
        k(   57) = (   0.3750000  -0.5051815   0.0000000), wk =   0.0277778
        k(   58) = (   0.3750000  -0.3608439   0.0000000), wk =   0.0277778
        k(   59) = (   0.3750000  -0.2165063   0.0000000), wk =   0.0277778
        k(   60) = (   0.3750000  -0.0721688   0.0000000), wk =   0.0277778
        k(   61) = (   0.4583333   0.0721688   0.0000000), wk =   0.0277778
        k(   62) = (   0.4583333   0.2165063   0.0000000), wk =   0.0277778
        k(   63) = (   0.4583333   0.3608439   0.0000000), wk =   0.0277778
        k(   64) = (   0.4583333   0.5051815   0.0000000), wk =   0.0277778
        k(   65) = (   0.4583333   0.6495190   0.0000000), wk =   0.0277778
        k(   66) = (   0.4583333   0.7938566   0.0000000), wk =   0.0277778
        k(   67) = (   0.4583333  -0.7938566   0.0000000), wk =   0.0277778
        k(   68) = (   0.4583333  -0.6495190   0.0000000), wk =   0.0277778
        k(   69) = (   0.4583333  -0.5051815   0.0000000), wk =   0.0277778
        k(   70) = (   0.4583333  -0.3608439   0.0000000), wk =   0.0277778
        k(   71) = (   0.4583333  -0.2165063   0.0000000), wk =   0.0277778
        k(   72) = (   0.4583333  -0.0721688   0.0000000), wk =   0.0277778

     Dense  grid:  1543747 G-vectors     FFT dimensions: ( 120,  72, 375)

     Estimated max dynamical RAM per process >     299.74 MB

     Estimated total dynamical RAM >      52.15 GB

     Initial potential from superposition of free atoms

     starting charge     104.9155, renormalised to     105.0000

     negative rho (up, down):  4.627E-05 0.000E+00

     Adding external electric field

     Computed dipole along edir(3) : 
        Dipole                0.0117 Ry au,          0.0297 Debye
        Dipole field          0.0000 Ry au, 

        E field amplitude [Ha a.u.]:  8.0000E-03
        Potential amp.        0.7245 Ry
        Total length         45.3534 bohr

     Starting wfcs are  133 atomic wfcs

     total cpu time spent up to now is       13.3 secs

     Self-consistent Calculation

     iteration #  1     ecut=   100.00 Ry     beta= 0.70
     Davidson diagonalization with overlap
     ethr =  1.00E-02,  avg # of iterations =  3.0

     negative rho (up, down):  4.072E-06 0.000E+00

     Adding external electric field

     Computed dipole along edir(3) : 
        Dipole               57.1210 Ry au,        145.1870 Debye
        Dipole field          0.0628 Ry au, 

        E field amplitude [Ha a.u.]:  8.0000E-03
        Potential amp.       -4.9730 Ry
        Total length         45.3534 bohr


     total cpu time spent up to now is       25.8 secs

     total energy              =    -214.77880819 Ry
     estimated scf accuracy    <      28.44171785 Ry

     iteration #  2     ecut=   100.00 Ry     beta= 0.70
     Davidson diagonalization with overlap
     ethr =  1.00E-02,  avg # of iterations = 17.9

     negative rho (up, down):  1.275E-06 0.000E+00

     Adding external electric field

     Computed dipole along edir(3) : 
        Dipole               -3.3390 Ry au,         -8.4868 Debye
        Dipole field         -0.0037 Ry au, 

        E field amplitude [Ha a.u.]:  8.0000E-03
        Potential amp.        1.0588 Ry
        Total length         45.3534 bohr


     total cpu time spent up to now is       69.2 secs

     total energy              =    -146.37213580 Ry
     estimated scf accuracy    <    4779.70858013 Ry

     iteration #  3     ecut=   100.00 Ry     beta= 0.70
     Davidson diagonalization with overlap
     ethr =  1.00E-02,  avg # of iterations = 13.5

     negative rho (up, down):  8.511E-07 0.000E+00

     Adding external electric field

     Computed dipole along edir(3) : 
        Dipole               -4.0659 Ry au,        -10.3345 Debye
        Dipole field         -0.0045 Ry au, 

        E field amplitude [Ha a.u.]:  8.0000E-03
        Potential amp.        1.1313 Ry
        Total length         45.3534 bohr


     total cpu time spent up to now is      101.7 secs

     total energy              =    -221.83722614 Ry
     estimated scf accuracy    <     865.76650579 Ry

     iteration #  4     ecut=   100.00 Ry     beta= 0.70
     Davidson diagonalization with overlap
     ethr =  1.00E-02,  avg # of iterations =  9.3

     Adding external electric field

     Computed dipole along edir(3) : 
        Dipole               -1.5088 Ry au,         -3.8349 Debye
        Dipole field         -0.0017 Ry au, 

        E field amplitude [Ha a.u.]:  8.0000E-03
        Potential amp.        0.8762 Ry
        Total length         45.3534 bohr


     total cpu time spent up to now is      124.5 secs

     total energy              =    -238.59078049 Ry
     estimated scf accuracy    <      24.07847544 Ry

     iteration #  5     ecut=   100.00 Ry     beta= 0.70
     Davidson diagonalization with overlap
     ethr =  1.00E-02,  avg # of iterations =  2.0

     Adding external electric field

     Computed dipole along edir(3) : 
        Dipole               -1.3861 Ry au,         -3.5231 Debye
        Dipole field         -0.0015 Ry au, 

        E field amplitude [Ha a.u.]:  8.0000E-03
        Potential amp.        0.8639 Ry
        Total length         45.3534 bohr


     total cpu time spent up to now is      133.7 secs

     total energy              =    -239.15563336 Ry
     estimated scf accuracy    <       2.59052748 Ry

     iteration #  6     ecut=   100.00 Ry     beta= 0.70
     Davidson diagonalization with overlap
     ethr =  2.47E-03,  avg # of iterations =  5.1

     Adding external electric field

     Computed dipole along edir(3) : 
        Dipole               -0.3450 Ry au,         -0.8768 Debye
        Dipole field         -0.0004 Ry au, 

        E field amplitude [Ha a.u.]:  8.0000E-03
        Potential amp.        0.7601 Ry
        Total length         45.3534 bohr


     total cpu time spent up to now is      145.8 secs

     total energy              =    -239.27802836 Ry
     estimated scf accuracy    <       1.32160985 Ry

     iteration #  7     ecut=   100.00 Ry     beta= 0.70
     Davidson diagonalization with overlap
     ethr =  1.26E-03,  avg # of iterations =  2.0

     Adding external electric field

     Computed dipole along edir(3) : 
        Dipole               -0.3128 Ry au,         -0.7951 Debye
        Dipole field         -0.0003 Ry au, 

        E field amplitude [Ha a.u.]:  8.0000E-03
        Potential amp.        0.7569 Ry
        Total length         45.3534 bohr


     total cpu time spent up to now is      155.2 secs

     total energy              =    -239.34161810 Ry
     estimated scf accuracy    <       0.54069782 Ry

     iteration #  8     ecut=   100.00 Ry     beta= 0.70
     Davidson diagonalization with overlap
     ethr =  5.15E-04,  avg # of iterations =  3.4

     Adding external electric field

     Computed dipole along edir(3) : 
        Dipole                0.0703 Ry au,          0.1786 Debye
        Dipole field          0.0001 Ry au, 

        E field amplitude [Ha a.u.]:  8.0000E-03
        Potential amp.        0.7186 Ry
        Total length         45.3534 bohr


     total cpu time spent up to now is      166.1 secs

     total energy              =    -239.34059579 Ry
     estimated scf accuracy    <       0.16658398 Ry

     iteration #  9     ecut=   100.00 Ry     beta= 0.70
     Davidson diagonalization with overlap
     ethr =  1.59E-04,  avg # of iterations =  7.6

     Adding external electric field

     Computed dipole along edir(3) : 
        Dipole                0.2995 Ry au,          0.7612 Debye
        Dipole field          0.0003 Ry au, 

        E field amplitude [Ha a.u.]:  8.0000E-03
        Potential amp.        0.6958 Ry
        Total length         45.3534 bohr


     total cpu time spent up to now is      180.1 secs

     total energy              =    -239.34469385 Ry
     estimated scf accuracy    <       0.10608881 Ry

     iteration # 10     ecut=   100.00 Ry     beta= 0.70
     Davidson diagonalization with overlap
     ethr =  1.01E-04,  avg # of iterations =  2.1

     Adding external electric field

     Computed dipole along edir(3) : 
        Dipole                0.4765 Ry au,          1.2112 Debye
        Dipole field          0.0005 Ry au, 

        E field amplitude [Ha a.u.]:  8.0000E-03
        Potential amp.        0.6781 Ry
        Total length         45.3534 bohr


     total cpu time spent up to now is      189.6 secs

     total energy              =    -239.34560648 Ry
     estimated scf accuracy    <       0.13452768 Ry

     iteration # 11     ecut=   100.00 Ry     beta= 0.70
     Davidson diagonalization with overlap
     ethr =  1.01E-04,  avg # of iterations =  1.2

     negative rho (up, down):  1.187E-05 0.000E+00

     Adding external electric field

     Computed dipole along edir(3) : 
        Dipole                2.2476 Ry au,          5.7127 Debye
        Dipole field          0.0025 Ry au, 

        E field amplitude [Ha a.u.]:  8.0000E-03
        Potential amp.        0.5014 Ry
        Total length         45.3534 bohr


     total cpu time spent up to now is      198.5 secs

     total energy              =    -239.32396431 Ry
     estimated scf accuracy    <       0.15844054 Ry

     iteration # 12     ecut=   100.00 Ry     beta= 0.70
     Davidson diagonalization with overlap
     ethr =  1.01E-04,  avg # of iterations =  2.0

     negative rho (up, down):  1.446E-05 0.000E+00

     Adding external electric field

     Computed dipole along edir(3) : 
        Dipole                2.2295 Ry au,          5.6667 Debye
        Dipole field          0.0025 Ry au, 

        E field amplitude [Ha a.u.]:  8.0000E-03
        Potential amp.        0.5032 Ry
        Total length         45.3534 bohr


     total cpu time spent up to now is      207.8 secs

     total energy              =    -239.32644256 Ry
     estimated scf accuracy    <       0.24094859 Ry

     iteration # 13     ecut=   100.00 Ry     beta= 0.70
     Davidson diagonalization with overlap
     ethr =  1.01E-04,  avg # of iterations =  1.0

     negative rho (up, down):  8.098E-07 0.000E+00

     Adding external electric field

     Computed dipole along edir(3) : 
        Dipole                2.0492 Ry au,          5.2085 Debye
        Dipole field          0.0023 Ry au, 

        E field amplitude [Ha a.u.]:  8.0000E-03
        Potential amp.        0.5212 Ry
        Total length         45.3534 bohr


     total cpu time spent up to now is      216.3 secs

     total energy              =    -239.32122678 Ry
     estimated scf accuracy    <       0.11144682 Ry

     iteration # 14     ecut=   100.00 Ry     beta= 0.70
     Davidson diagonalization with overlap
     ethr =  1.01E-04,  avg # of iterations =  2.1

     negative rho (up, down):  2.526E-07 0.000E+00

     Adding external electric field

     Computed dipole along edir(3) : 
        Dipole                2.1101 Ry au,          5.3632 Debye
        Dipole field          0.0023 Ry au, 

        E field amplitude [Ha a.u.]:  8.0000E-03
        Potential amp.        0.5151 Ry
        Total length         45.3534 bohr


     total cpu time spent up to now is      226.1 secs

     total energy              =    -239.32586136 Ry
     estimated scf accuracy    <       0.06048122 Ry

     iteration # 15     ecut=   100.00 Ry     beta= 0.70
     Davidson diagonalization with overlap
     ethr =  5.76E-05,  avg # of iterations =  1.4

     negative rho (up, down):  7.799E-07 0.000E+00

     Adding external electric field

     Computed dipole along edir(3) : 
        Dipole                2.0938 Ry au,          5.3218 Debye
        Dipole field          0.0023 Ry au, 

        E field amplitude [Ha a.u.]:  8.0000E-03
        Potential amp.        0.5168 Ry
        Total length         45.3534 bohr


     total cpu time spent up to now is      235.0 secs

     total energy              =    -239.32671972 Ry
     estimated scf accuracy    <       0.01095815 Ry

     iteration # 16     ecut=   100.00 Ry     beta= 0.70
     Davidson diagonalization with overlap
     ethr =  1.04E-05,  avg # of iterations =  9.8

     negative rho (up, down):  6.370E-07 0.000E+00

     Adding external electric field

     Computed dipole along edir(3) : 
        Dipole                2.1587 Ry au,          5.4869 Debye
        Dipole field          0.0024 Ry au, 

        E field amplitude [Ha a.u.]:  8.0000E-03
        Potential amp.        0.5103 Ry
        Total length         45.3534 bohr


     total cpu time spent up to now is      250.3 secs

     total energy              =    -239.32728436 Ry
     estimated scf accuracy    <       0.00401998 Ry

     iteration # 17     ecut=   100.00 Ry     beta= 0.70
     Davidson diagonalization with overlap
     c_bands:  1 eigenvalues not converged
     ethr =  3.83E-06,  avg # of iterations =  6.7

     negative rho (up, down):  1.420E-07 0.000E+00

     Adding external electric field

     Computed dipole along edir(3) : 
        Dipole                2.1726 Ry au,          5.5223 Debye
        Dipole field          0.0024 Ry au, 

        E field amplitude [Ha a.u.]:  8.0000E-03
        Potential amp.        0.5089 Ry
        Total length         45.3534 bohr


     total cpu time spent up to now is      264.1 secs

     total energy              =    -239.32738599 Ry
     estimated scf accuracy    <       0.00115289 Ry

     iteration # 18     ecut=   100.00 Ry     beta= 0.70
     Davidson diagonalization with overlap
     ethr =  1.10E-06,  avg # of iterations =  4.1

     negative rho (up, down):  6.664E-08 0.000E+00

     Adding external electric field

     Computed dipole along edir(3) : 
        Dipole                2.1649 Ry au,          5.5026 Debye
        Dipole field          0.0024 Ry au, 

        E field amplitude [Ha a.u.]:  8.0000E-03
        Potential amp.        0.5097 Ry
        Total length         45.3534 bohr


     total cpu time spent up to now is      276.3 secs

     total energy              =    -239.32744543 Ry
     estimated scf accuracy    <       0.00017055 Ry

     iteration # 19     ecut=   100.00 Ry     beta= 0.70
     Davidson diagonalization with overlap
     ethr =  1.62E-07,  avg # of iterations =  5.4

     Adding external electric field

     Computed dipole along edir(3) : 
        Dipole                2.1666 Ry au,          5.5069 Debye
        Dipole field          0.0024 Ry au, 

        E field amplitude [Ha a.u.]:  8.0000E-03
        Potential amp.        0.5095 Ry
        Total length         45.3534 bohr


     total cpu time spent up to now is      289.5 secs

     total energy              =    -239.32746779 Ry
     estimated scf accuracy    <       0.00010883 Ry

     iteration # 20     ecut=   100.00 Ry     beta= 0.70
     Davidson diagonalization with overlap
     ethr =  1.04E-07,  avg # of iterations =  2.1

     Adding external electric field

     Computed dipole along edir(3) : 
        Dipole                2.1651 Ry au,          5.5032 Debye
        Dipole field          0.0024 Ry au, 

        E field amplitude [Ha a.u.]:  8.0000E-03
        Potential amp.        0.5097 Ry
        Total length         45.3534 bohr


     total cpu time spent up to now is      299.5 secs

     total energy              =    -239.32747066 Ry
     estimated scf accuracy    <       0.00004819 Ry

     iteration # 21     ecut=   100.00 Ry     beta= 0.70
     Davidson diagonalization with overlap
     ethr =  4.59E-08,  avg # of iterations =  1.9

     Adding external electric field

     Computed dipole along edir(3) : 
        Dipole                2.1647 Ry au,          5.5021 Debye
        Dipole field          0.0024 Ry au, 

        E field amplitude [Ha a.u.]:  8.0000E-03
        Potential amp.        0.5097 Ry
        Total length         45.3534 bohr


     total cpu time spent up to now is      308.6 secs

     total energy              =    -239.32747262 Ry
     estimated scf accuracy    <       0.00001466 Ry

     iteration # 22     ecut=   100.00 Ry     beta= 0.70
     Davidson diagonalization with overlap
     ethr =  1.40E-08,  avg # of iterations =  3.7

     Adding external electric field

     Computed dipole along edir(3) : 
        Dipole                2.1658 Ry au,          5.5049 Debye
        Dipole field          0.0024 Ry au, 

        E field amplitude [Ha a.u.]:  8.0000E-03
        Potential amp.        0.5096 Ry
        Total length         45.3534 bohr


     total cpu time spent up to now is      319.1 secs

     total energy              =    -239.32747397 Ry
     estimated scf accuracy    <       0.00000105 Ry

     iteration # 23     ecut=   100.00 Ry     beta= 0.70
     Davidson diagonalization with overlap
     ethr =  9.99E-10,  avg # of iterations =  5.3

     Adding external electric field

     Computed dipole along edir(3) : 
        Dipole                2.1664 Ry au,          5.5065 Debye
        Dipole field          0.0024 Ry au, 

        E field amplitude [Ha a.u.]:  8.0000E-03
        Potential amp.        0.5095 Ry
        Total length         45.3534 bohr


     total cpu time spent up to now is      332.4 secs

     total energy              =    -239.32747447 Ry
     estimated scf accuracy    <       0.00000134 Ry

     iteration # 24     ecut=   100.00 Ry     beta= 0.70
     Davidson diagonalization with overlap
     ethr =  9.99E-10,  avg # of iterations =  2.7

     Adding external electric field

     Computed dipole along edir(3) : 
        Dipole                2.1671 Ry au,          5.5083 Debye
        Dipole field          0.0024 Ry au, 

        E field amplitude [Ha a.u.]:  8.0000E-03
        Potential amp.        0.5095 Ry
        Total length         45.3534 bohr


     total cpu time spent up to now is      343.0 secs

     total energy              =    -239.32747455 Ry
     estimated scf accuracy    <       0.00000202 Ry

     iteration # 25     ecut=   100.00 Ry     beta= 0.70
     Davidson diagonalization with overlap
     ethr =  9.99E-10,  avg # of iterations =  1.9

     Adding external electric field

     Computed dipole along edir(3) : 
        Dipole                2.1677 Ry au,          5.5097 Debye
        Dipole field          0.0024 Ry au, 

        E field amplitude [Ha a.u.]:  8.0000E-03
        Potential amp.        0.5094 Ry
        Total length         45.3534 bohr


     total cpu time spent up to now is      352.1 secs

     total energy              =    -239.32747474 Ry
     estimated scf accuracy    <       0.00000003 Ry

     iteration # 26     ecut=   100.00 Ry     beta= 0.70
     Davidson diagonalization with overlap
     ethr =  2.55E-11,  avg # of iterations =  6.7

     Adding external electric field

     Computed dipole along edir(3) : 
        Dipole                2.1676 Ry au,          5.5096 Debye
        Dipole field          0.0024 Ry au, 

        E field amplitude [Ha a.u.]:  8.0000E-03
        Potential amp.        0.5094 Ry
        Total length         45.3534 bohr


     total cpu time spent up to now is      367.6 secs

     total energy              =    -239.32747474 Ry
     estimated scf accuracy    <       0.00000007 Ry

     iteration # 27     ecut=   100.00 Ry     beta= 0.70
     Davidson diagonalization with overlap
     ethr =  2.55E-11,  avg # of iterations =  3.6

     Adding external electric field

     Computed dipole along edir(3) : 
        Dipole                2.1675 Ry au,          5.5092 Debye
        Dipole field          0.0024 Ry au, 

        E field amplitude [Ha a.u.]:  8.0000E-03
        Potential amp.        0.5094 Ry
        Total length         45.3534 bohr


     total cpu time spent up to now is      378.9 secs

     total energy              =    -239.32747475 Ry
     estimated scf accuracy    <       0.00000019 Ry

     iteration # 28     ecut=   100.00 Ry     beta= 0.70
     Davidson diagonalization with overlap
     ethr =  2.55E-11,  avg # of iterations =  2.8

     Adding external electric field

     Computed dipole along edir(3) : 
        Dipole                2.1677 Ry au,          5.5099 Debye
        Dipole field          0.0024 Ry au, 

        E field amplitude [Ha a.u.]:  8.0000E-03
        Potential amp.        0.5094 Ry
        Total length         45.3534 bohr


     total cpu time spent up to now is      389.2 secs

     total energy              =    -239.32747476 Ry
     estimated scf accuracy    <       0.00000003 Ry

     iteration # 29     ecut=   100.00 Ry     beta= 0.70
     Davidson diagonalization with overlap
     ethr =  2.55E-11,  avg # of iterations =  2.2

     Adding external electric field

     Computed dipole along edir(3) : 
        Dipole                2.1677 Ry au,          5.5099 Debye
        Dipole field          0.0024 Ry au, 

        E field amplitude [Ha a.u.]:  8.0000E-03
        Potential amp.        0.5094 Ry
        Total length         45.3534 bohr


     total cpu time spent up to now is      398.7 secs

     total energy              =    -239.32747477 Ry
     estimated scf accuracy    <       0.00000001 Ry

     iteration # 30     ecut=   100.00 Ry     beta= 0.70
     Davidson diagonalization with overlap
     ethr =  1.29E-11,  avg # of iterations =  3.6

     Adding external electric field

     Computed dipole along edir(3) : 
        Dipole                2.1677 Ry au,          5.5097 Debye
        Dipole field          0.0024 Ry au, 

        E field amplitude [Ha a.u.]:  8.0000E-03
        Potential amp.        0.5094 Ry
        Total length         45.3534 bohr


     total cpu time spent up to now is      409.7 secs

     total energy              =    -239.32747477 Ry
     estimated scf accuracy    <       0.00000004 Ry

     iteration # 31     ecut=   100.00 Ry     beta= 0.70
     Davidson diagonalization with overlap
     ethr =  1.29E-11,  avg # of iterations =  2.1

     Adding external electric field

     Computed dipole along edir(3) : 
        Dipole                2.1678 Ry au,          5.5100 Debye
        Dipole field          0.0024 Ry au, 

        E field amplitude [Ha a.u.]:  8.0000E-03
        Potential amp.        0.5094 Ry
        Total length         45.3534 bohr


     total cpu time spent up to now is      419.6 secs

     total energy              =    -239.32747478 Ry
     estimated scf accuracy    <       0.00000002 Ry

     iteration # 32     ecut=   100.00 Ry     beta= 0.70
     Davidson diagonalization with overlap
     ethr =  1.29E-11,  avg # of iterations =  2.0

     Adding external electric field

     Computed dipole along edir(3) : 
        Dipole                2.1678 Ry au,          5.5099 Debye
        Dipole field          0.0024 Ry au, 

        E field amplitude [Ha a.u.]:  8.0000E-03
        Potential amp.        0.5094 Ry
        Total length         45.3534 bohr


     total cpu time spent up to now is      428.7 secs

     total energy              =    -239.32747478 Ry
     estimated scf accuracy    <          3.7E-09 Ry

     iteration # 33     ecut=   100.00 Ry     beta= 0.70
     Davidson diagonalization with overlap
     ethr =  3.56E-12,  avg # of iterations =  1.9

     Adding external electric field

     Computed dipole along edir(3) : 
        Dipole                2.1678 Ry au,          5.5099 Debye
        Dipole field          0.0024 Ry au, 

        E field amplitude [Ha a.u.]:  8.0000E-03
        Potential amp.        0.5094 Ry
        Total length         45.3534 bohr


     total cpu time spent up to now is      437.8 secs

     total energy              =    -239.32747478 Ry
     estimated scf accuracy    <          1.1E-09 Ry

     iteration # 34     ecut=   100.00 Ry     beta= 0.70
     Davidson diagonalization with overlap
     ethr =  1.04E-12,  avg # of iterations =  2.3

     Adding external electric field

     Computed dipole along edir(3) : 
        Dipole                2.1679 Ry au,          5.5103 Debye
        Dipole field          0.0024 Ry au, 

        E field amplitude [Ha a.u.]:  8.0000E-03
        Potential amp.        0.5094 Ry
        Total length         45.3534 bohr


     total cpu time spent up to now is      447.4 secs

     End of self-consistent calculation

          k = 0.0417 0.0722 0.0000 (192948 PWs)   bands (ev):

   -53.7665 -25.7032 -25.6840 -25.6802 -10.7709  -9.7424  -9.3924  -9.1431
    -8.3715  -8.1248  -8.0901  -6.7317  -6.6749  -6.4860  -5.9434  -5.8836
    -5.6711  -5.3387  -5.0984  -5.0982  -4.9460  -4.6155  -4.6154  -4.5329
    -4.3914  -4.3379  -4.2890  -4.1173  -4.1166  -4.0635  -3.6587  -3.6581
    -3.4585  -3.4445  -3.3551  -2.7283  -2.5758  -2.5703  -2.1613  -1.9719
    -1.9215  -1.8268  -1.8201  -1.6561  -1.4839  -1.0726  -0.7679  -0.6387
    -0.4992  -0.4400  -0.2345  -0.2205  -0.0627  -0.0385   0.1744   0.2621
     0.2662   0.3817   0.4854   0.4902   0.6429   0.7244   0.8043   1.0661

          k = 0.0417 0.2165 0.0000 (192942 PWs)   bands (ev):

   -53.7665 -25.7032 -25.6840 -25.6803 -10.7080  -9.6798  -9.3300  -9.0809
    -8.3095  -8.0629  -8.0279  -7.3493  -6.6703  -6.4248  -6.3406  -6.0047
    -5.8216  -5.7618  -5.1555  -5.0380  -5.0090  -4.7702  -4.7220  -4.5553
    -4.4715  -4.2283  -4.1664  -4.0568  -3.8440  -3.6211  -3.5989  -3.4417
    -3.3923  -3.2708  -2.7610  -2.6184  -2.5910  -2.5694  -2.5146  -2.0995
    -1.8658  -1.8452  -1.7625  -1.4025  -1.2255  -1.1834  -0.9860  -0.8111
    -0.7761  -0.6940  -0.5187  -0.3272  -0.1736   0.0413   0.2347   0.3170
     0.3974   0.6956   0.8131   0.8526   0.8865   0.9948   1.1187   1.2433

          k = 0.0417 0.3608 0.0000 (192862 PWs)   bands (ev):

   -53.7665 -25.7032 -25.6840 -25.6803 -10.5822  -9.5546  -9.2054  -8.9565
    -8.1856  -7.9654  -7.9392  -7.9037  -6.9527  -6.6141  -6.5473  -6.3699
    -6.3020  -5.6982  -5.6115  -5.3705  -5.3254  -4.9174  -4.4351  -4.3506
    -4.3135  -4.1074  -4.0146  -3.9372  -3.7835  -3.4801  -3.3399  -3.2773
    -3.1467  -3.0242  -2.8103  -2.4230  -2.3982  -2.1228  -2.0461  -1.9845
    -1.9722  -1.8935  -1.7492  -1.6441  -1.4025  -1.3795  -1.3404  -0.9434
    -0.8302  -0.5772  -0.3099  -0.0904  -0.0681  -0.0252   0.3473   0.4157
     0.5555   0.7755   0.8116   0.8712   0.9743   1.0552   1.0619   1.4707

          k = 0.0417 0.5052 0.0000 (192883 PWs)   bands (ev):

   -53.7665 -25.7032 -25.6840 -25.6803 -10.3937  -9.3671  -9.0187  -8.7701
    -8.5220  -7.9999  -7.7539  -7.7177  -7.5059  -7.1651  -6.9199  -6.3636
    -6.1583  -6.1186  -5.9157  -5.8729  -5.5117  -4.7367  -4.5459  -4.3076
    -4.2550  -4.1680  -3.9260  -3.7585  -3.6842  -3.4221  -3.3023  -3.0969
    -2.9467  -2.5035  -2.4870  -2.4389  -2.3813  -2.2241  -2.0277  -1.9130
    -1.8100  -1.7802  -1.6003  -1.5725  -1.4678  -1.3337  -0.9735  -0.8484
    -0.7790  -0.4234  -0.4045   0.0355   0.0800   0.2492   0.5168   0.5378
     0.5635   0.5681   0.7859   0.9718   1.1267   1.2253   1.6071   1.7551

          k = 0.0417 0.6495 0.0000 (192942 PWs)   bands (ev):

   -53.7665 -25.7032 -25.6840 -25.6803 -10.1427  -9.1175  -9.0187  -8.7701
    -8.5220  -7.9998  -7.7528  -7.6570  -7.5072  -7.4700  -7.4107  -6.6466
    -6.4031  -6.3620  -6.1184  -5.8742  -5.2658  -5.0251  -4.7842  -4.4962
    -4.1672  -4.0155  -3.9261  -3.6854  -3.5208  -3.4221  -3.0661  -2.9467
    -2.8855  -2.8493  -2.6485  -2.5033  -2.4388  -2.0279  -1.9943  -1.8039
    -1.6002  -1.5690  -1.3400  -1.2370  -1.1614  -0.9880  -0.8481  -0.4310
    -0.4139  -0.2959  -0.1646   0.0241   0.1685   0.1822   0.4629   0.5648
     0.6927   0.9368   1.1325   1.1851   1.2780   1.4646   1.6038   1.6951

          k = 0.0417 0.7939 0.0000 (192966 PWs)   bands (ev):

   -53.7665 -25.7032 -25.6840 -25.6803  -9.8296  -9.4548  -8.8061  -8.4600
    -8.4333  -8.2124  -8.0888  -7.8419  -7.4446  -7.1995  -7.1613  -7.0755
    -6.8311  -6.7914  -5.8136  -5.5701  -5.4486  -5.2062  -4.9584  -4.5908
    -4.1963  -3.8379  -3.7168  -3.6281  -3.3894  -3.3596  -3.2728  -3.2246
    -3.0376  -2.8732  -2.7722  -2.5661  -2.4235  -2.2090  -1.7141  -1.5038
    -1.4029  -1.2870  -1.0608  -0.9668  -0.9568  -0.7616  -0.6597  -0.4830
    -0.4744  -0.0692   0.0808   0.1351   0.1965   0.4932   0.8298   0.8912
     0.9318   1.0645   1.0711   1.0994   1.1216   1.3884   1.4468   1.6397

          k = 0.0417-0.7939 0.0000 (192966 PWs)   bands (ev):

   -53.7665 -25.7032 -25.6840 -25.6803  -9.8296  -9.4548  -8.8061  -8.4600
    -8.4333  -8.2124  -8.0888  -7.8419  -7.4446  -7.1995  -7.1613  -7.0755
    -6.8311  -6.7914  -5.8136  -5.5701  -5.4486  -5.2062  -4.9584  -4.5908
    -4.1963  -3.8379  -3.7168  -3.6281  -3.3894  -3.3596  -3.2728  -3.2246
    -3.0376  -2.8732  -2.7722  -2.5661  -2.4235  -2.2090  -1.7141  -1.5038
    -1.4029  -1.2870  -1.0608  -0.9668  -0.9568  -0.7616  -0.6597  -0.4830
    -0.4744  -0.0692   0.0808   0.1351   0.1965   0.4932   0.8298   0.8912
     0.9318   1.0645   1.0711   1.0994   1.1216   1.3884   1.4468   1.6397

          k = 0.0417-0.6495 0.0000 (192942 PWs)   bands (ev):

   -53.7665 -25.7032 -25.6840 -25.6803 -10.1427  -9.1175  -9.0187  -8.7701
    -8.5220  -7.9998  -7.7528  -7.6570  -7.5072  -7.4700  -7.4107  -6.6466
    -6.4031  -6.3620  -6.1184  -5.8742  -5.2658  -5.0251  -4.7842  -4.4962
    -4.1672  -4.0155  -3.9261  -3.6854  -3.5208  -3.4221  -3.0661  -2.9467
    -2.8855  -2.8493  -2.6485  -2.5033  -2.4388  -2.0279  -1.9943  -1.8039
    -1.6002  -1.5690  -1.3400  -1.2370  -1.1614  -0.9880  -0.8481  -0.4310
    -0.4139  -0.2959  -0.1646   0.0241   0.1685   0.1822   0.4629   0.5648
     0.6927   0.9368   1.1325   1.1851   1.2780   1.4646   1.6038   1.6951

          k = 0.0417-0.5052 0.0000 (192883 PWs)   bands (ev):

   -53.7665 -25.7032 -25.6840 -25.6803 -10.3937  -9.3671  -9.0187  -8.7701
    -8.5220  -7.9999  -7.7539  -7.7177  -7.5059  -7.1651  -6.9199  -6.3636
    -6.1583  -6.1186  -5.9157  -5.8729  -5.5117  -4.7367  -4.5459  -4.3076
    -4.2550  -4.1680  -3.9260  -3.7585  -3.6842  -3.4221  -3.3023  -3.0969
    -2.9467  -2.5035  -2.4870  -2.4389  -2.3813  -2.2241  -2.0277  -1.9130
    -1.8100  -1.7802  -1.6003  -1.5725  -1.4678  -1.3337  -0.9735  -0.8484
    -0.7790  -0.4234  -0.4045   0.0355   0.0800   0.2492   0.5168   0.5378
     0.5635   0.5681   0.7859   0.9718   1.1267   1.2253   1.6071   1.7551

          k = 0.0417-0.3608 0.0000 (192862 PWs)   bands (ev):

   -53.7665 -25.7032 -25.6840 -25.6803 -10.5822  -9.5546  -9.2054  -8.9565
    -8.1856  -7.9654  -7.9392  -7.9037  -6.9527  -6.6141  -6.5473  -6.3699
    -6.3020  -5.6982  -5.6115  -5.3705  -5.3254  -4.9174  -4.4351  -4.3506
    -4.3135  -4.1074  -4.0146  -3.9372  -3.7835  -3.4801  -3.3399  -3.2773
    -3.1467  -3.0242  -2.8103  -2.4230  -2.3982  -2.1228  -2.0461  -1.9845
    -1.9722  -1.8935  -1.7492  -1.6441  -1.4025  -1.3795  -1.3404  -0.9434
    -0.8302  -0.5772  -0.3099  -0.0904  -0.0681  -0.0252   0.3473   0.4157
     0.5555   0.7755   0.8116   0.8712   0.9743   1.0552   1.0619   1.4707

          k = 0.0417-0.2165 0.0000 (192942 PWs)   bands (ev):

   -53.7665 -25.7032 -25.6840 -25.6803 -10.7080  -9.6798  -9.3300  -9.0809
    -8.3095  -8.0629  -8.0279  -7.3493  -6.6703  -6.4248  -6.3406  -6.0047
    -5.8216  -5.7618  -5.1555  -5.0380  -5.0090  -4.7702  -4.7220  -4.5553
    -4.4715  -4.2283  -4.1664  -4.0568  -3.8440  -3.6211  -3.5989  -3.4417
    -3.3923  -3.2708  -2.7610  -2.6184  -2.5910  -2.5694  -2.5146  -2.0995
    -1.8658  -1.8452  -1.7625  -1.4025  -1.2255  -1.1834  -0.9860  -0.8111
    -0.7761  -0.6940  -0.5187  -0.3272  -0.1736   0.0413   0.2347   0.3170
     0.3974   0.6956   0.8131   0.8526   0.8865   0.9948   1.1187   1.2433

          k = 0.0417-0.0722 0.0000 (192948 PWs)   bands (ev):

   -53.7665 -25.7032 -25.6840 -25.6802 -10.7709  -9.7424  -9.3924  -9.1431
    -8.3715  -8.1248  -8.0901  -6.7317  -6.6749  -6.4860  -5.9434  -5.8836
    -5.6711  -5.3387  -5.0984  -5.0982  -4.9460  -4.6155  -4.6154  -4.5329
    -4.3914  -4.3379  -4.2890  -4.1173  -4.1166  -4.0635  -3.6587  -3.6581
    -3.4585  -3.4445  -3.3551  -2.7283  -2.5758  -2.5703  -2.1613  -1.9719
    -1.9215  -1.8268  -1.8201  -1.6561  -1.4839  -1.0726  -0.7679  -0.6387
    -0.4992  -0.4400  -0.2345  -0.2205  -0.0627  -0.0385   0.1744   0.2621
     0.2662   0.3817   0.4854   0.4902   0.6429   0.7244   0.8043   1.0661

          k = 0.1250 0.0722 0.0000 (192973 PWs)   bands (ev):

   -53.7665 -25.7032 -25.6840 -25.6802 -10.7499  -9.7215  -9.6212  -8.8737
    -8.5989  -8.0710  -7.8554  -6.9571  -6.6546  -6.2210  -5.9231  -5.8628
    -5.6510  -5.5604  -5.5596  -4.9261  -4.8645  -4.8079  -4.7557  -4.5728
    -4.5693  -4.1187  -4.1176  -4.0489  -4.0248  -3.8832  -3.8459  -3.4354
    -3.3376  -3.2769  -3.2754  -2.8428  -2.8367  -2.4787  -2.3706  -1.9662
    -1.8847  -1.7323  -1.6733  -1.4453  -1.4362  -1.2305  -0.8845  -0.7599
    -0.6315  -0.6190  -0.5263  -0.1116  -0.0602   0.0534   0.1283   0.1518
     0.4123   0.5069   0.6536   0.7077   0.7419   0.7507   0.8542   1.1982

          k = 0.1250 0.2165 0.0000 (192926 PWs)   bands (ev):

   -53.7665 -25.7032 -25.6840 -25.6803 -10.6870  -9.6589  -9.5587  -8.8115
    -8.5368  -8.0088  -7.7936  -7.3288  -6.8956  -6.3206  -6.2277  -6.1597
    -5.8007  -5.4995  -5.4994  -5.2294  -5.1355  -4.7080  -4.6896  -4.5112
    -4.5109  -4.1475  -4.0582  -4.0579  -3.9676  -3.6606  -3.3752  -3.3441
    -3.2181  -3.2173  -2.7810  -2.7799  -2.6104  -2.5542  -2.3823  -2.3105
    -2.2773  -1.6172  -1.3863  -1.3789  -1.3393  -1.2957  -0.9585  -0.7067
    -0.6137  -0.5730  -0.5687  -0.3987  -0.3186   0.0663   0.0803   0.2106
     0.5609   0.7319   0.7755   0.7858   0.9016   0.9125   0.9341   1.2524

          k = 0.1250 0.3608 0.0000 (192891 PWs)   bands (ev):

   -53.7665 -25.7032 -25.6840 -25.6803 -10.5612  -9.5338  -9.4339  -8.6874
    -8.4127  -7.9448  -7.8845  -7.6702  -6.9323  -6.8383  -6.7723  -6.1060
    -6.0375  -5.8342  -5.6769  -5.3783  -5.3064  -5.1082  -4.5728  -4.3910
    -4.2939  -4.2295  -3.9384  -3.8476  -3.5425  -3.3222  -3.2584  -3.2247
    -3.1276  -3.1004  -2.8672  -2.6614  -2.6082  -2.2653  -2.1951  -2.0677
    -2.0534  -1.6400  -1.5024  -1.4598  -1.2980  -1.2643  -1.1818  -0.8156
    -0.5753  -0.5538  -0.4988  -0.4604  -0.2667   0.1425   0.3098   0.3786
     0.6753   0.6803   0.8474   0.8746   1.0030   1.0461   1.3880   1.5401

          k = 0.1250 0.5052 0.0000 (192912 PWs)   bands (ev):

   -53.7665 -25.7032 -25.6840 -25.6803 -10.3727  -9.3463  -9.2469  -8.5018
    -8.5009  -8.2268  -7.6986  -7.4874  -7.4832  -7.3903  -6.6547  -6.5882
    -6.3817  -5.8604  -5.8481  -5.6515  -5.4909  -5.1968  -4.7652  -4.3898
    -4.2114  -4.0511  -3.7589  -3.6790  -3.6528  -3.4338  -3.3664  -3.0776
    -2.9253  -2.6529  -2.4867  -2.4826  -2.4321  -2.4208  -2.0172  -1.9877
    -1.8836  -1.5749  -1.3491  -1.3208  -1.2949  -1.1187  -1.0902  -0.7885
    -0.5853  -0.5614  -0.3973  -0.3074  -0.1276   0.3069   0.4871   0.5391
     0.8386   0.8540   0.9558   1.0340   1.1535   1.1828   1.5650   1.7115

          k = 0.1250 0.6495 0.0000 (192967 PWs)   bands (ev):

   -53.7665 -25.7032 -25.6840 -25.6803 -10.1218  -9.0968  -8.9984  -8.9975
    -8.2537  -7.9815  -7.9769  -7.8829  -7.4509  -7.2391  -7.1446  -6.8711
    -6.3485  -6.3371  -6.1375  -5.6107  -5.2539  -5.2376  -4.9553  -4.5246
    -4.1598  -4.1338  -3.9726  -3.8758  -3.5201  -3.4282  -3.0833  -2.9128
    -2.8404  -2.6926  -2.4886  -2.4236  -2.4166  -2.2481  -1.8070  -1.7613
    -1.7526  -1.5105  -1.3403  -1.0937  -1.0877  -0.9061  -0.8633  -0.4563
    -0.3442  -0.1891  -0.1704  -0.1368   0.1013   0.4070   0.6290   0.6751
     0.7103   0.9234   1.0468   1.2322   1.2500   1.3115   1.3686   1.7620

          k = 0.1250 0.7939 0.0000 (192964 PWs)   bands (ev):

   -53.7665 -25.7032 -25.6840 -25.6803  -9.8087  -9.4340  -8.7854  -8.6873
    -8.4127  -8.3155  -7.9447  -7.6705  -7.5748  -7.3009  -7.1420  -6.9321
    -6.7723  -6.5646  -6.0371  -5.6713  -5.3074  -4.9502  -4.9324  -4.6541
    -4.5704  -4.2939  -3.8470  -3.6754  -3.4888  -3.3207  -3.2226  -3.1339
    -2.8674  -2.7883  -2.5463  -2.4043  -2.1899  -2.0662  -1.9589  -1.6402
    -1.4946  -1.4597  -1.1545  -0.8203  -0.6241  -0.6062  -0.5577  -0.4966
    -0.2683  -0.1638   0.0671   0.1219   0.3267   0.5116   0.6794   0.6987
     0.8533   0.9184   0.9543   1.1265   1.2971   1.3883   1.6094   1.6706

          k = 0.1250-0.7939 0.0000 (192964 PWs)   bands (ev):

   -53.7665 -25.7032 -25.6840 -25.6803  -9.8087  -9.4340  -8.7854  -8.6873
    -8.4127  -8.3155  -7.9447  -7.6705  -7.5748  -7.3009  -7.1420  -6.9321
    -6.7723  -6.5646  -6.0371  -5.6713  -5.3074  -4.9502  -4.9324  -4.6541
    -4.5704  -4.2939  -3.8470  -3.6754  -3.4888  -3.3207  -3.2226  -3.1339
    -2.8674  -2.7883  -2.5463  -2.4043  -2.1899  -2.0662  -1.9589  -1.6402
    -1.4946  -1.4597  -1.1545  -0.8203  -0.6241  -0.6062  -0.5577  -0.4966
    -0.2683  -0.1638   0.0671   0.1219   0.3267   0.5116   0.6794   0.6987
     0.8533   0.9184   0.9543   1.1265   1.2971   1.3883   1.6094   1.6706

          k = 0.1250-0.6495 0.0000 (192967 PWs)   bands (ev):

   -53.7665 -25.7032 -25.6840 -25.6803 -10.1218  -9.0968  -8.9984  -8.9975
    -8.2537  -7.9815  -7.9769  -7.8829  -7.4509  -7.2391  -7.1446  -6.8711
    -6.3485  -6.3371  -6.1375  -5.6107  -5.2539  -5.2376  -4.9553  -4.5246
    -4.1598  -4.1338  -3.9726  -3.8758  -3.5201  -3.4282  -3.0833  -2.9128
    -2.8404  -2.6926  -2.4886  -2.4236  -2.4166  -2.2481  -1.8070  -1.7613
    -1.7526  -1.5105  -1.3403  -1.0937  -1.0877  -0.9061  -0.8633  -0.4563
    -0.3442  -0.1891  -0.1704  -0.1368   0.1013   0.4070   0.6290   0.6751
     0.7103   0.9234   1.0468   1.2322   1.2500   1.3115   1.3686   1.7620

          k = 0.1250-0.5052 0.0000 (192912 PWs)   bands (ev):

   -53.7665 -25.7032 -25.6840 -25.6803 -10.3727  -9.3463  -9.2469  -8.5018
    -8.5009  -8.2268  -7.6986  -7.4874  -7.4832  -7.3903  -6.6547  -6.5882
    -6.3817  -5.8604  -5.8481  -5.6515  -5.4909  -5.1968  -4.7652  -4.3898
    -4.2114  -4.0511  -3.7589  -3.6790  -3.6528  -3.4338  -3.3664  -3.0776
    -2.9253  -2.6529  -2.4867  -2.4826  -2.4321  -2.4208  -2.0172  -1.9877
    -1.8836  -1.5749  -1.3491  -1.3208  -1.2949  -1.1187  -1.0902  -0.7885
    -0.5853  -0.5614  -0.3973  -0.3074  -0.1276   0.3069   0.4871   0.5391
     0.8386   0.8540   0.9558   1.0340   1.1535   1.1828   1.5650   1.7115

          k = 0.1250-0.3608 0.0000 (192891 PWs)   bands (ev):

   -53.7665 -25.7032 -25.6840 -25.6803 -10.5612  -9.5338  -9.4339  -8.6874
    -8.4127  -7.9448  -7.8845  -7.6702  -6.9323  -6.8383  -6.7723  -6.1060
    -6.0375  -5.8342  -5.6769  -5.3783  -5.3064  -5.1082  -4.5728  -4.3910
    -4.2939  -4.2295  -3.9384  -3.8476  -3.5425  -3.3222  -3.2584  -3.2247
    -3.1276  -3.1004  -2.8672  -2.6614  -2.6082  -2.2653  -2.1951  -2.0677
    -2.0534  -1.6400  -1.5024  -1.4598  -1.2980  -1.2643  -1.1818  -0.8156
    -0.5753  -0.5538  -0.4988  -0.4604  -0.2667   0.1425   0.3098   0.3786
     0.6753   0.6803   0.8474   0.8746   1.0030   1.0461   1.3880   1.5401

          k = 0.1250-0.2165 0.0000 (192926 PWs)   bands (ev):

   -53.7665 -25.7032 -25.6840 -25.6803 -10.6870  -9.6589  -9.5587  -8.8115
    -8.5368  -8.0088  -7.7936  -7.3288  -6.8956  -6.3206  -6.2277  -6.1597
    -5.8007  -5.4995  -5.4994  -5.2294  -5.1355  -4.7080  -4.6896  -4.5112
    -4.5109  -4.1475  -4.0582  -4.0579  -3.9676  -3.6606  -3.3752  -3.3441
    -3.2181  -3.2173  -2.7810  -2.7799  -2.6104  -2.5542  -2.3823  -2.3105
    -2.2773  -1.6172  -1.3863  -1.3789  -1.3393  -1.2957  -0.9585  -0.7067
    -0.6137  -0.5730  -0.5687  -0.3987  -0.3186   0.0663   0.0803   0.2106
     0.5609   0.7319   0.7755   0.7858   0.9016   0.9125   0.9341   1.2524

          k = 0.1250-0.0722 0.0000 (192973 PWs)   bands (ev):

   -53.7665 -25.7032 -25.6840 -25.6802 -10.7499  -9.7215  -9.6212  -8.8737
    -8.5989  -8.0710  -7.8554  -6.9571  -6.6546  -6.2210  -5.9231  -5.8628
    -5.6510  -5.5604  -5.5596  -4.9261  -4.8645  -4.8079  -4.7557  -4.5728
    -4.5693  -4.1187  -4.1176  -4.0489  -4.0248  -3.8832  -3.8459  -3.4354
    -3.3376  -3.2769  -3.2754  -2.8428  -2.8367  -2.4787  -2.3706  -1.9662
    -1.8847  -1.7323  -1.6733  -1.4453  -1.4362  -1.2305  -0.8845  -0.7599
    -0.6315  -0.6190  -0.5263  -0.1116  -0.0602   0.0534   0.1283   0.1518
     0.4123   0.5069   0.6536   0.7077   0.7419   0.7507   0.8542   1.1982

          k = 0.2083 0.0722 0.0000 (192934 PWs)   bands (ev):

   -53.7665 -25.7032 -25.6840 -25.6802 -10.7080  -9.8296  -9.6797  -8.8061
    -8.5840  -8.0294  -7.5675  -7.1625  -6.6138  -6.0047  -5.9377  -5.8826
    -5.8200  -5.7618  -5.6106  -5.0381  -5.0104  -4.9575  -4.8856  -4.7691
    -4.5553  -4.0571  -4.0068  -3.8441  -3.7507  -3.6210  -3.5986  -3.4419
    -3.3924  -3.3017  -3.2706  -2.7606  -2.5928  -2.5649  -2.5125  -2.1031
    -1.9695  -1.7676  -1.4148  -1.3606  -1.2617  -1.2234  -1.1824  -0.8147
    -0.7790  -0.7454  -0.6912  -0.2734  -0.1723   0.0763   0.2569   0.3130
     0.4201   0.4952   0.5056   0.5689   0.9869   1.0759   1.1166   1.2306

          k = 0.2083 0.2165 0.0000 (192892 PWs)   bands (ev):

   -53.7665 -25.7032 -25.6840 -25.6803 -10.6451  -9.7670  -9.6171  -8.7439
    -8.5220  -7.9673  -7.5059  -7.2879  -7.1008  -6.4309  -6.2798  -5.9439
    -5.8765  -5.7580  -5.4303  -5.2177  -5.0954  -4.9501  -4.8961  -4.6628
    -4.2725  -4.2168  -4.1083  -3.8433  -3.6904  -3.5617  -3.3823  -3.3360
    -3.3254  -3.0837  -2.7350  -2.6123  -2.5609  -2.5348  -2.5253  -2.4945
    -2.1805  -1.7108  -1.5403  -1.4051  -1.3482  -1.1247  -0.7507  -0.6649
    -0.6333  -0.5783  -0.3672  -0.3316  -0.2438  -0.0682   0.0185   0.1367
     0.4763   0.5251   0.5574   0.5909   0.7313   0.9116   1.1711   1.2838

          k = 0.2083 0.3608 0.0000 (192925 PWs)   bands (ev):

   -53.7665 -25.7032 -25.6840 -25.6803 -10.5193  -9.6421  -9.4920  -8.6196
    -8.3981  -7.9036  -7.8431  -7.3828  -7.0426  -6.9776  -6.8912  -6.0366
    -5.8225  -5.8222  -5.7545  -5.6343  -5.2661  -4.8297  -4.8278  -4.7736
    -4.4266  -4.2546  -3.5714  -3.4440  -3.4425  -3.3246  -3.2684  -3.2606
    -3.2578  -3.2125  -3.0892  -2.5000  -2.4170  -2.4128  -2.3949  -2.3819
    -2.0284  -1.6948  -1.2415  -1.0922  -1.0162  -1.0074  -0.9944  -0.7905
    -0.6456  -0.6282  -0.6248  -0.5167  -0.1230   0.1289   0.2584   0.2998
     0.4510   0.5929   0.6734   0.9403   1.2340   1.2670   1.2857   1.3849

          k = 0.2083 0.5052 0.0000 (192924 PWs)   bands (ev):

   -53.7665 -25.7032 -25.6840 -25.6803 -10.3309  -9.4548  -9.3046  -8.4601
    -8.4334  -8.2124  -7.6573  -7.5954  -7.4443  -7.1982  -6.7930  -6.5853
    -6.3697  -5.8136  -5.6402  -5.5718  -5.4489  -5.3688  -4.9654  -4.6488
    -4.5902  -3.8379  -3.7784  -3.6257  -3.3906  -3.3596  -3.2657  -3.0865
    -3.0352  -2.8746  -2.8232  -2.5741  -2.4235  -2.2381  -2.2091  -1.8135
    -1.5038  -1.4033  -1.3392  -1.2893  -1.1619  -1.0566  -0.8433  -0.6639
    -0.4892  -0.4728  -0.4575  -0.3422  -0.1514   0.1328   0.4197   0.7441
     0.7837   0.8464   0.9656   1.1110   1.2939   1.3067   1.3964   1.5140

          k = 0.2083 0.6495 0.0000 (192946 PWs)   bands (ev):

   -53.7665 -25.7032 -25.6840 -25.6803 -10.0800  -9.2054  -9.0551  -8.9565
    -8.1855  -8.0888  -7.9653  -7.9379  -7.4096  -7.0755  -6.9526  -6.8585
    -6.5472  -6.3018  -5.8537  -5.4491  -5.3977  -5.3287  -5.2022  -4.4088
    -4.3482  -4.3135  -4.2468  -4.1042  -3.3402  -3.2746  -3.1539  -3.0293
    -2.8510  -2.7983  -2.4229  -2.1982  -2.0041  -1.9806  -1.9714  -1.8937
    -1.7413  -1.4904  -1.3816  -0.9923  -0.9424  -0.8347  -0.6324  -0.4925
    -0.3035  -0.2852  -0.1197  -0.0257   0.3184   0.6081   0.6688   0.7196
     0.8649   0.8904   1.0090   1.0505   1.0561   1.0743   1.4756   1.5494

          k = 0.2083 0.7939 0.0000 (192995 PWs)   bands (ev):

   -53.7665 -25.7032 -25.6840 -25.6803  -9.7671  -9.3924  -8.8944  -8.7439
    -8.5220  -8.3713  -7.8762  -7.6569  -7.5060  -7.2879  -7.1009  -6.7314
    -6.6461  -6.2798  -6.2407  -5.8742  -5.0954  -5.0265  -4.8963  -4.7337
    -4.6645  -4.5288  -4.1096  -4.0453  -3.7523  -3.6851  -2.8634  -2.7349
    -2.5620  -2.5328  -2.4954  -2.3839  -2.2239  -2.1489  -1.7127  -1.6837
    -1.4430  -1.3691  -1.3381  -0.6473  -0.5853  -0.5696  -0.5439  -0.2453
    -0.0884  -0.0030   0.0179   0.1471   0.4864   0.5290   0.5334   0.5922
     0.7078   0.8706   0.9214   1.1456   1.3605   1.4099   1.4532   1.4961

          k = 0.2083-0.7939 0.0000 (192995 PWs)   bands (ev):

   -53.7665 -25.7032 -25.6840 -25.6803  -9.7671  -9.3924  -8.8944  -8.7439
    -8.5220  -8.3713  -7.8762  -7.6569  -7.5060  -7.2879  -7.1009  -6.7314
    -6.6461  -6.2798  -6.2407  -5.8742  -5.0954  -5.0265  -4.8963  -4.7337
    -4.6645  -4.5288  -4.1096  -4.0453  -3.7523  -3.6851  -2.8634  -2.7349
    -2.5620  -2.5328  -2.4954  -2.3839  -2.2239  -2.1489  -1.7127  -1.6837
    -1.4430  -1.3691  -1.3381  -0.6473  -0.5853  -0.5696  -0.5439  -0.2453
    -0.0884  -0.0030   0.0179   0.1471   0.4864   0.5290   0.5334   0.5922
     0.7078   0.8706   0.9214   1.1456   1.3605   1.4099   1.4532   1.4961

          k = 0.2083-0.6495 0.0000 (192946 PWs)   bands (ev):

   -53.7665 -25.7032 -25.6840 -25.6803 -10.0800  -9.2054  -9.0551  -8.9565
    -8.1855  -8.0888  -7.9653  -7.9379  -7.4096  -7.0755  -6.9526  -6.8585
    -6.5472  -6.3018  -5.8537  -5.4491  -5.3977  -5.3287  -5.2022  -4.4088
    -4.3482  -4.3135  -4.2468  -4.1042  -3.3402  -3.2746  -3.1539  -3.0293
    -2.8510  -2.7983  -2.4229  -2.1982  -2.0041  -1.9806  -1.9714  -1.8937
    -1.7413  -1.4904  -1.3816  -0.9923  -0.9424  -0.8347  -0.6324  -0.4925
    -0.3035  -0.2852  -0.1197  -0.0257   0.3184   0.6081   0.6688   0.7196
     0.8649   0.8904   1.0090   1.0505   1.0561   1.0743   1.4756   1.5494

          k = 0.2083-0.5052 0.0000 (192924 PWs)   bands (ev):

   -53.7665 -25.7032 -25.6840 -25.6803 -10.3309  -9.4548  -9.3046  -8.4601
    -8.4334  -8.2124  -7.6573  -7.5954  -7.4443  -7.1982  -6.7930  -6.5853
    -6.3697  -5.8136  -5.6402  -5.5718  -5.4489  -5.3688  -4.9654  -4.6488
    -4.5902  -3.8379  -3.7784  -3.6257  -3.3906  -3.3596  -3.2657  -3.0865
    -3.0352  -2.8746  -2.8232  -2.5741  -2.4235  -2.2381  -2.2091  -1.8135
    -1.5038  -1.4033  -1.3392  -1.2893  -1.1619  -1.0566  -0.8433  -0.6639
    -0.4892  -0.4728  -0.4575  -0.3422  -0.1514   0.1328   0.4197   0.7441
     0.7837   0.8464   0.9656   1.1110   1.2939   1.3067   1.3964   1.5140

          k = 0.2083-0.3608 0.0000 (192925 PWs)   bands (ev):

   -53.7665 -25.7032 -25.6840 -25.6803 -10.5193  -9.6421  -9.4920  -8.6196
    -8.3981  -7.9036  -7.8431  -7.3828  -7.0426  -6.9776  -6.8912  -6.0366
    -5.8225  -5.8222  -5.7545  -5.6343  -5.2661  -4.8297  -4.8278  -4.7736
    -4.4266  -4.2546  -3.5714  -3.4440  -3.4425  -3.3246  -3.2684  -3.2606
    -3.2578  -3.2125  -3.0892  -2.5000  -2.4170  -2.4128  -2.3949  -2.3819
    -2.0284  -1.6948  -1.2415  -1.0922  -1.0162  -1.0074  -0.9944  -0.7905
    -0.6456  -0.6282  -0.6248  -0.5167  -0.1230   0.1289   0.2584   0.2998
     0.4510   0.5929   0.6734   0.9403   1.2340   1.2670   1.2857   1.3849

          k = 0.2083-0.2165 0.0000 (192892 PWs)   bands (ev):

   -53.7665 -25.7032 -25.6840 -25.6803 -10.6451  -9.7670  -9.6171  -8.7439
    -8.5220  -7.9673  -7.5059  -7.2879  -7.1008  -6.4309  -6.2798  -5.9439
    -5.8765  -5.7580  -5.4303  -5.2177  -5.0954  -4.9501  -4.8961  -4.6628
    -4.2725  -4.2168  -4.1083  -3.8433  -3.6904  -3.5617  -3.3823  -3.3360
    -3.3254  -3.0837  -2.7350  -2.6123  -2.5609  -2.5348  -2.5253  -2.4945
    -2.1805  -1.7108  -1.5403  -1.4051  -1.3482  -1.1247  -0.7507  -0.6649
    -0.6333  -0.5783  -0.3672  -0.3316  -0.2438  -0.0682   0.0185   0.1367
     0.4763   0.5251   0.5574   0.5909   0.7313   0.9116   1.1711   1.2838

          k = 0.2083-0.0722 0.0000 (192934 PWs)   bands (ev):

   -53.7665 -25.7032 -25.6840 -25.6802 -10.7080  -9.8296  -9.6797  -8.8061
    -8.5840  -8.0294  -7.5675  -7.1625  -6.6138  -6.0047  -5.9377  -5.8826
    -5.8200  -5.7618  -5.6106  -5.0381  -5.0104  -4.9575  -4.8856  -4.7691
    -4.5553  -4.0571  -4.0068  -3.8441  -3.7507  -3.6210  -3.5986  -3.4419
    -3.3924  -3.3017  -3.2706  -2.7606  -2.5928  -2.5649  -2.5125  -2.1031
    -1.9695  -1.7676  -1.4148  -1.3606  -1.2617  -1.2234  -1.1824  -0.8147
    -0.7790  -0.7454  -0.6912  -0.2734  -0.1723   0.0763   0.2569   0.3130
     0.4201   0.4952   0.5056   0.5689   0.9869   1.0759   1.1166   1.2306

          k = 0.2917 0.0722 0.0000 (192893 PWs)   bands (ev):

   -53.7665 -25.7032 -25.6840 -25.6802 -10.6451 -10.0173  -9.6171  -8.9928
    -8.2743  -7.9673  -7.3479  -7.2596  -6.5528  -6.4309  -5.9439  -5.8221
    -5.7626  -5.6289  -5.5501  -5.4305  -5.2178  -5.1423  -4.9483  -4.8261
    -4.2725  -4.2168  -3.9487  -3.8432  -3.5619  -3.4630  -3.3810  -3.3323
    -3.3246  -3.2494  -3.0836  -2.7416  -2.6089  -2.5313  -2.4913  -2.1805
    -2.0344  -1.6012  -1.5690  -1.5356  -1.4025  -1.1534  -1.1172  -0.8552
    -0.7471  -0.6638  -0.6222  -0.3665  -0.3294  -0.0576  -0.0251   0.1536
     0.4039   0.5388   0.6069   0.7324   0.7737   0.8876   0.9269   1.1713

          k = 0.2917 0.2165 0.0000 (192850 PWs)   bands (ev):

   -53.7665 -25.7032 -25.6840 -25.6803 -10.5822  -9.9547  -9.5546  -8.9306
    -8.2125  -7.9052  -7.2862  -7.2264  -7.1981  -6.6140  -6.3699  -6.2189
    -5.7010  -5.6114  -5.5679  -5.3699  -5.0810  -5.0352  -4.9173  -4.6033
    -4.4351  -4.0501  -4.0150  -3.9374  -3.7836  -3.4804  -3.4018  -3.2682
    -3.1296  -3.0242  -2.8105  -2.6833  -2.5722  -2.4754  -2.3957  -2.1223
    -2.0541  -2.0396  -1.6496  -1.4019  -1.3412  -1.0864  -0.9879  -0.6152
    -0.5379  -0.3100  -0.3008  -0.1371  -0.0862  -0.0574   0.0025   0.0326
     0.1999   0.2716   0.4170   0.4636   0.5630   0.7912   0.9845   1.2284

          k = 0.2917 0.3608 0.0000 (192930 PWs)   bands (ev):

   -53.7665 -25.7032 -25.6840 -25.6803 -10.4565  -9.8296  -9.4296  -8.8061
    -8.0888  -7.8420  -7.7811  -7.2266  -7.1626  -7.0753  -6.8300  -6.2479
    -6.2192  -5.5774  -5.5191  -5.4464  -5.2489  -5.2056  -4.9581  -4.6053
    -4.5286  -4.1963  -3.7169  -3.6650  -3.6053  -3.2855  -3.2249  -3.1527
    -3.0462  -3.0236  -2.9055  -2.7726  -2.5737  -2.5345  -2.5200  -2.0055
    -1.8427  -1.7135  -1.2301  -1.0060  -0.9741  -0.9612  -0.8390  -0.7637
    -0.5555  -0.4841  -0.4751  -0.1971  -0.0689  -0.0071   0.1189   0.1534
     0.1961   0.5774   0.7297   0.8849   0.9041   1.0685   1.1001   1.1556

          k = 0.2917 0.5052 0.0000 (192991 PWs)   bands (ev):

   -53.7665 -25.7032 -25.6840 -25.6803 -10.2681  -9.6420  -9.2422  -8.6196
    -8.3981  -7.9036  -7.7802  -7.5953  -7.3827  -6.9777  -6.8912  -6.7688
    -6.0653  -6.0650  -5.7526  -5.3918  -5.2643  -5.1463  -5.0674  -5.0671
    -4.7741  -4.2546  -3.5718  -3.4874  -3.4845  -3.3245  -3.2583  -3.1045
    -2.9970  -2.9633  -2.7279  -2.7276  -2.3966  -2.3836  -1.8341  -1.8289
    -1.6949  -1.2402  -1.1019  -1.0633  -1.0505  -0.9950  -0.7963  -0.6329
    -0.5311  -0.3019  -0.1226  -0.0375  -0.0317   0.0650   0.2918   0.3213
     0.6560   0.7466   0.9366   1.0342   1.0471   1.2698   1.4974   1.5825

          k = 0.2917 0.6495 0.0000 (192996 PWs)   bands (ev):

   -53.7665 -25.7032 -25.6840 -25.6803 -10.0174  -9.3924  -8.9928  -8.8944
    -8.3714  -8.2743  -7.8762  -7.6569  -7.3479  -7.2597  -6.7315  -6.6462
    -6.5527  -6.2406  -5.8219  -5.6311  -5.5502  -5.1454  -5.0221  -4.8264
    -4.7337  -4.5307  -4.0490  -3.9458  -3.7514  -3.4507  -3.2515  -2.8694
    -2.7355  -2.4913  -2.3841  -2.2240  -2.1511  -2.0354  -1.6897  -1.6007
    -1.5600  -1.4429  -1.3676  -1.1294  -0.8514  -0.6344  -0.5722  -0.5442
    -0.0981  -0.0431  -0.0002   0.1544   0.5058   0.5373   0.5587   0.7062
     0.7749   0.8499   0.8948   0.9382   1.0120   1.3607   1.3749   1.4481

          k = 0.2917 0.7939 0.0000 (193052 PWs)   bands (ev):

   -53.7665 -25.7032 -25.6840 -25.6803  -9.7045  -9.3301  -9.0809  -8.7081
    -8.6817  -8.3093  -8.0616  -7.6910  -7.3493  -7.0393  -6.9810  -6.6699
    -6.4245  -6.3405  -6.0573  -5.9750  -5.5185  -5.1555  -4.8399  -4.7208
    -4.5261  -4.4725  -4.3608  -4.2271  -4.1665  -3.8651  -2.9601  -2.6179
    -2.5826  -2.4439  -2.2498  -2.1967  -2.0893  -1.8582  -1.8451  -1.5099
    -1.4021  -1.3178  -0.9858  -0.7605  -0.7084  -0.5197  -0.3451  -0.1775
     0.0303   0.0638   0.1827   0.3413   0.4046   0.4216   0.5653   0.7538
     0.7981   0.8225   0.8838   0.9926   1.1461   1.1605   1.3362   1.4401

          k = 0.2917-0.7939 0.0000 (193052 PWs)   bands (ev):

   -53.7665 -25.7032 -25.6840 -25.6803  -9.7045  -9.3301  -9.0809  -8.7081
    -8.6817  -8.3093  -8.0616  -7.6910  -7.3493  -7.0393  -6.9810  -6.6699
    -6.4245  -6.3405  -6.0573  -5.9750  -5.5185  -5.1555  -4.8399  -4.7208
    -4.5261  -4.4725  -4.3608  -4.2271  -4.1665  -3.8651  -2.9601  -2.6179
    -2.5826  -2.4439  -2.2498  -2.1967  -2.0893  -1.8582  -1.8451  -1.5099
    -1.4021  -1.3178  -0.9858  -0.7605  -0.7084  -0.5197  -0.3451  -0.1775
     0.0303   0.0638   0.1827   0.3413   0.4046   0.4216   0.5653   0.7538
     0.7981   0.8225   0.8838   0.9926   1.1461   1.1605   1.3362   1.4401

          k = 0.2917-0.6495 0.0000 (192996 PWs)   bands (ev):

   -53.7665 -25.7032 -25.6840 -25.6803 -10.0174  -9.3924  -8.9928  -8.8944
    -8.3714  -8.2743  -7.8762  -7.6569  -7.3479  -7.2597  -6.7315  -6.6462
    -6.5527  -6.2406  -5.8219  -5.6311  -5.5502  -5.1454  -5.0221  -4.8264
    -4.7337  -4.5307  -4.0490  -3.9458  -3.7514  -3.4507  -3.2515  -2.8694
    -2.7355  -2.4913  -2.3841  -2.2240  -2.1511  -2.0354  -1.6897  -1.6007
    -1.5600  -1.4429  -1.3676  -1.1294  -0.8514  -0.6344  -0.5722  -0.5442
    -0.0981  -0.0431  -0.0002   0.1544   0.5058   0.5373   0.5587   0.7062
     0.7749   0.8499   0.8948   0.9382   1.0120   1.3607   1.3749   1.4481

          k = 0.2917-0.5052 0.0000 (192991 PWs)   bands (ev):

   -53.7665 -25.7032 -25.6840 -25.6803 -10.2681  -9.6420  -9.2422  -8.6196
    -8.3981  -7.9036  -7.7802  -7.5953  -7.3827  -6.9777  -6.8912  -6.7688
    -6.0653  -6.0650  -5.7526  -5.3918  -5.2643  -5.1463  -5.0674  -5.0671
    -4.7741  -4.2546  -3.5718  -3.4874  -3.4845  -3.3245  -3.2583  -3.1045
    -2.9970  -2.9633  -2.7279  -2.7276  -2.3966  -2.3836  -1.8341  -1.8289
    -1.6949  -1.2402  -1.1019  -1.0633  -1.0505  -0.9950  -0.7963  -0.6329
    -0.5311  -0.3019  -0.1226  -0.0375  -0.0317   0.0650   0.2918   0.3213
     0.6560   0.7466   0.9366   1.0342   1.0471   1.2698   1.4974   1.5825

          k = 0.2917-0.3608 0.0000 (192930 PWs)   bands (ev):

   -53.7665 -25.7032 -25.6840 -25.6803 -10.4565  -9.8296  -9.4296  -8.8061
    -8.0888  -7.8420  -7.7811  -7.2266  -7.1626  -7.0753  -6.8300  -6.2479
    -6.2192  -5.5774  -5.5191  -5.4464  -5.2489  -5.2056  -4.9581  -4.6053
    -4.5286  -4.1963  -3.7169  -3.6650  -3.6053  -3.2855  -3.2249  -3.1527
    -3.0462  -3.0236  -2.9055  -2.7726  -2.5737  -2.5345  -2.5200  -2.0055
    -1.8427  -1.7135  -1.2301  -1.0060  -0.9741  -0.9612  -0.8390  -0.7637
    -0.5555  -0.4841  -0.4751  -0.1971  -0.0689  -0.0071   0.1189   0.1534
     0.1961   0.5774   0.7297   0.8849   0.9041   1.0685   1.1001   1.1556

          k = 0.2917-0.2165 0.0000 (192850 PWs)   bands (ev):

   -53.7665 -25.7032 -25.6840 -25.6803 -10.5822  -9.9547  -9.5546  -8.9306
    -8.2125  -7.9052  -7.2862  -7.2264  -7.1981  -6.6140  -6.3699  -6.2189
    -5.7010  -5.6114  -5.5679  -5.3699  -5.0810  -5.0352  -4.9173  -4.6033
    -4.4351  -4.0501  -4.0150  -3.9374  -3.7836  -3.4804  -3.4018  -3.2682
    -3.1296  -3.0242  -2.8105  -2.6833  -2.5722  -2.4754  -2.3957  -2.1223
    -2.0541  -2.0396  -1.6496  -1.4019  -1.3412  -1.0864  -0.9879  -0.6152
    -0.5379  -0.3100  -0.3008  -0.1371  -0.0862  -0.0574   0.0025   0.0326
     0.1999   0.2716   0.4170   0.4636   0.5630   0.7912   0.9845   1.2284

          k = 0.2917-0.0722 0.0000 (192893 PWs)   bands (ev):

   -53.7665 -25.7032 -25.6840 -25.6802 -10.6451 -10.0173  -9.6171  -8.9928
    -8.2743  -7.9673  -7.3479  -7.2596  -6.5528  -6.4309  -5.9439  -5.8221
    -5.7626  -5.6289  -5.5501  -5.4305  -5.2178  -5.1423  -4.9483  -4.8261
    -4.2725  -4.2168  -3.9487  -3.8432  -3.5619  -3.4630  -3.3810  -3.3323
    -3.3246  -3.2494  -3.0836  -2.7416  -2.6089  -2.5313  -2.4913  -2.1805
    -2.0344  -1.6012  -1.5690  -1.5356  -1.4025  -1.1534  -1.1172  -0.8552
    -0.7471  -0.6638  -0.6222  -0.3665  -0.3294  -0.0576  -0.0251   0.1536
     0.4039   0.5388   0.6069   0.7324   0.7737   0.8876   0.9269   1.1713

          k = 0.3750 0.0722 0.0000 (192872 PWs)   bands (ev):

   -53.7665 -25.7032 -25.6840 -25.6802 -10.5612 -10.1844  -9.5337  -9.1590
    -7.9449  -7.8844  -7.5126  -6.9323  -6.8383  -6.4714  -6.1059  -5.8343
    -5.7413  -5.6790  -5.4697  -5.3784  -5.3135  -5.2989  -5.1082  -4.7466
    -4.3915  -4.2296  -3.9383  -3.8717  -3.5425  -3.2757  -3.2248  -3.1865
    -3.1311  -3.1002  -2.8960  -2.8677  -2.6604  -2.6076  -2.2653  -2.2558
    -2.0563  -1.9134  -1.7111  -1.3014  -1.2671  -1.1829  -0.9791  -0.9460
    -0.8547  -0.6490  -0.5013  -0.4781  -0.4600  -0.1831  -0.1327   0.1466
     0.3465   0.3756   0.4054   0.4641   0.6978   0.8776   1.0325   1.1266

          k = 0.3750 0.2165 0.0000 (192883 PWs)   bands (ev):

   -53.7665 -25.7032 -25.6840 -25.6803 -10.4984 -10.1217  -9.4712  -9.0967
    -7.8832  -7.8224  -7.4508  -7.1447  -6.8710  -6.7775  -6.7766  -6.1377
    -5.7759  -5.7710  -5.6168  -5.2526  -5.2378  -4.9553  -4.6249  -4.5659
    -4.5238  -4.1752  -4.1644  -3.9732  -3.6475  -3.6058  -3.5199  -3.2135
    -3.0717  -2.8373  -2.6927  -2.5503  -2.5482  -2.4187  -2.2498  -2.2442
    -2.0049  -1.9908  -1.6476  -1.3408  -1.2473  -1.2314  -0.9175  -0.8653
    -0.5975  -0.4175  -0.3404  -0.1697  -0.0795   0.0890   0.1576   0.1988
     0.2088   0.3261   0.4040   0.4211   0.4448   0.4644   0.6338   1.2499

          k = 0.3750 0.3608 0.0000 (192896 PWs)   bands (ev):

   -53.7665 -25.7032 -25.6840 -25.6803 -10.3727  -9.9964  -9.3463  -8.9721
    -7.7603  -7.7592  -7.6983  -7.3904  -7.3270  -6.7506  -6.7462  -6.6547
    -6.3817  -5.6520  -5.4938  -5.1970  -5.1370  -5.1199  -5.1144  -4.7645
    -4.2119  -4.1469  -4.0838  -4.0502  -3.7587  -3.1782  -3.1306  -3.0977
    -2.9645  -2.9498  -2.9238  -2.7216  -2.6463  -2.4824  -2.4315  -1.8821
    -1.7910  -1.5744  -1.1876  -1.1233  -1.0921  -0.8197  -0.7823  -0.5774
    -0.4799  -0.3344  -0.3066  -0.2917  -0.1257  -0.0291   0.0427   0.3109
     0.3557   0.5174   0.5267   0.5506   0.5793   0.9575   1.0335   1.0743

          k = 0.3750 0.5052 0.0000 (192945 PWs)   bands (ev):

   -53.7665 -25.7032 -25.6840 -25.6803 -10.1845  -9.8087  -9.1590  -8.7854
    -8.3156  -7.9447  -7.5750  -7.5127  -7.3008  -7.1419  -6.9322  -6.5648
    -6.4714  -5.7412  -5.6715  -5.4701  -5.3162  -5.2993  -4.9481  -4.9323
    -4.7465  -4.6541  -3.8716  -3.6760  -3.4910  -3.2225  -3.1898  -3.1405
    -2.9145  -2.8677  -2.7768  -2.5407  -2.4042  -2.2558  -1.9586  -1.9135
    -1.7097  -1.1688  -0.9641  -0.9469  -0.8497  -0.6341  -0.6071  -0.5163
    -0.4921  -0.2892  -0.1773  -0.1247   0.0768   0.2116   0.3294   0.3532
     0.4659   0.6913   0.7152   0.7449   0.9343   1.1227   1.2865   1.5004

          k = 0.3750 0.6495 0.0000 (193025 PWs)   bands (ev):

   -53.7665 -25.7032 -25.6840 -25.6803  -9.9339  -9.5587  -8.9098  -8.8116
    -8.5368  -8.4393  -7.7938  -7.4240  -7.3289  -7.2652  -6.8954  -6.3205
    -6.2275  -6.2273  -6.1590  -5.7931  -5.2284  -5.2274  -5.1354  -5.0622
    -4.7062  -4.6888  -4.1475  -3.9675  -3.6374  -3.6332  -3.6039  -2.6809
    -2.6103  -2.5444  -2.3062  -2.2774  -2.0227  -2.0219  -1.6192  -1.4873
    -1.4800  -1.3390  -1.2659  -0.9581  -0.7351  -0.7231  -0.4133  -0.3212
    -0.0694   0.0787   0.1008   0.2140   0.4309   0.5767   0.5868   0.7362
     0.8011   0.8305   0.8531   0.9204   0.9829   1.1317   1.1356   1.1834

          k = 0.3750 0.7939 0.0000 (193030 PWs)   bands (ev):

   -53.7665 -25.7032 -25.6840 -25.6803  -9.6213  -9.2474  -9.2465  -8.8736
    -8.5989  -8.2289  -8.2245  -7.8556  -7.0220  -6.9570  -6.6547  -6.5936
    -6.5823  -6.2202  -6.0156  -5.9230  -5.6511  -5.5588  -4.9263  -4.7571
    -4.5657  -4.4125  -4.3914  -4.3766  -4.0465  -4.0227  -3.3393  -2.9913
    -2.3908  -2.2612  -2.0463  -1.9993  -1.9487  -1.7314  -1.6608  -1.4257
    -1.3172  -1.2302  -0.8836  -0.8568  -0.5287  -0.2859  -0.2243  -0.1121
     0.0441   0.0740   0.1770   0.2218   0.4118   0.4782   0.5867   0.6563
     0.7093   0.7753   0.8656   1.1563   1.1713   1.1812   1.2043   1.2235

          k = 0.3750-0.7939 0.0000 (193030 PWs)   bands (ev):

   -53.7665 -25.7032 -25.6840 -25.6803  -9.6213  -9.2474  -9.2465  -8.8736
    -8.5989  -8.2289  -8.2245  -7.8556  -7.0220  -6.9570  -6.6547  -6.5936
    -6.5823  -6.2202  -6.0156  -5.9230  -5.6511  -5.5588  -4.9263  -4.7571
    -4.5657  -4.4125  -4.3914  -4.3766  -4.0465  -4.0227  -3.3393  -2.9913
    -2.3908  -2.2612  -2.0463  -1.9993  -1.9487  -1.7314  -1.6608  -1.4257
    -1.3172  -1.2302  -0.8836  -0.8568  -0.5287  -0.2859  -0.2243  -0.1121
     0.0441   0.0740   0.1770   0.2218   0.4118   0.4782   0.5867   0.6563
     0.7093   0.7753   0.8656   1.1563   1.1713   1.1812   1.2043   1.2235

          k = 0.3750-0.6495 0.0000 (193025 PWs)   bands (ev):

   -53.7665 -25.7032 -25.6840 -25.6803  -9.9339  -9.5587  -8.9098  -8.8116
    -8.5368  -8.4393  -7.7938  -7.4240  -7.3289  -7.2652  -6.8954  -6.3205
    -6.2275  -6.2273  -6.1590  -5.7931  -5.2284  -5.2274  -5.1354  -5.0622
    -4.7062  -4.6888  -4.1475  -3.9675  -3.6374  -3.6332  -3.6039  -2.6809
    -2.6103  -2.5444  -2.3062  -2.2774  -2.0227  -2.0219  -1.6192  -1.4873
    -1.4800  -1.3390  -1.2659  -0.9581  -0.7351  -0.7231  -0.4133  -0.3212
    -0.0694   0.0787   0.1008   0.2140   0.4309   0.5767   0.5868   0.7362
     0.8011   0.8305   0.8531   0.9204   0.9829   1.1317   1.1356   1.1834

          k = 0.3750-0.5052 0.0000 (192945 PWs)   bands (ev):

   -53.7665 -25.7032 -25.6840 -25.6803 -10.1845  -9.8087  -9.1590  -8.7854
    -8.3156  -7.9447  -7.5750  -7.5127  -7.3008  -7.1419  -6.9322  -6.5648
    -6.4714  -5.7412  -5.6715  -5.4701  -5.3162  -5.2993  -4.9481  -4.9323
    -4.7465  -4.6541  -3.8716  -3.6760  -3.4910  -3.2225  -3.1898  -3.1405
    -2.9145  -2.8677  -2.7768  -2.5407  -2.4042  -2.2558  -1.9586  -1.9135
    -1.7097  -1.1688  -0.9641  -0.9469  -0.8497  -0.6341  -0.6071  -0.5163
    -0.4921  -0.2892  -0.1773  -0.1247   0.0768   0.2116   0.3294   0.3532
     0.4659   0.6913   0.7152   0.7449   0.9343   1.1227   1.2865   1.5004

          k = 0.3750-0.3608 0.0000 (192896 PWs)   bands (ev):

   -53.7665 -25.7032 -25.6840 -25.6803 -10.3727  -9.9964  -9.3463  -8.9721
    -7.7603  -7.7592  -7.6983  -7.3904  -7.3270  -6.7506  -6.7462  -6.6547
    -6.3817  -5.6520  -5.4938  -5.1970  -5.1370  -5.1199  -5.1144  -4.7645
    -4.2119  -4.1469  -4.0838  -4.0502  -3.7587  -3.1782  -3.1306  -3.0977
    -2.9645  -2.9498  -2.9238  -2.7216  -2.6463  -2.4824  -2.4315  -1.8821
    -1.7910  -1.5744  -1.1876  -1.1233  -1.0921  -0.8197  -0.7823  -0.5774
    -0.4799  -0.3344  -0.3066  -0.2917  -0.1257  -0.0291   0.0427   0.3109
     0.3557   0.5174   0.5267   0.5506   0.5793   0.9575   1.0335   1.0743

          k = 0.3750-0.2165 0.0000 (192883 PWs)   bands (ev):

   -53.7665 -25.7032 -25.6840 -25.6803 -10.4984 -10.1217  -9.4712  -9.0967
    -7.8832  -7.8224  -7.4508  -7.1447  -6.8710  -6.7775  -6.7766  -6.1377
    -5.7759  -5.7710  -5.6168  -5.2526  -5.2378  -4.9553  -4.6249  -4.5659
    -4.5238  -4.1752  -4.1644  -3.9732  -3.6475  -3.6058  -3.5199  -3.2135
    -3.0717  -2.8373  -2.6927  -2.5503  -2.5482  -2.4187  -2.2498  -2.2442
    -2.0049  -1.9908  -1.6476  -1.3408  -1.2473  -1.2314  -0.9175  -0.8653
    -0.5975  -0.4175  -0.3404  -0.1697  -0.0795   0.0890   0.1576   0.1988
     0.2088   0.3261   0.4040   0.4211   0.4448   0.4644   0.6338   1.2499

          k = 0.3750-0.0722 0.0000 (192872 PWs)   bands (ev):

   -53.7665 -25.7032 -25.6840 -25.6802 -10.5612 -10.1844  -9.5337  -9.1590
    -7.9449  -7.8844  -7.5126  -6.9323  -6.8383  -6.4714  -6.1059  -5.8343
    -5.7413  -5.6790  -5.4697  -5.3784  -5.3135  -5.2989  -5.1082  -4.7466
    -4.3915  -4.2296  -3.9383  -3.8717  -3.5425  -3.2757  -3.2248  -3.1865
    -3.1311  -3.1002  -2.8960  -2.8677  -2.6604  -2.6076  -2.2653  -2.2558
    -2.0563  -1.9134  -1.7111  -1.3014  -1.2671  -1.1829  -0.9791  -0.9460
    -0.8547  -0.6490  -0.5013  -0.4781  -0.4600  -0.1831  -0.1327   0.1466
     0.3465   0.3756   0.4054   0.4641   0.6978   0.8776   1.0325   1.1266

          k = 0.4583 0.0722 0.0000 (192888 PWs)   bands (ev):

   -53.7665 -25.7032 -25.6840 -25.6802 -10.4566 -10.3307  -9.4296  -9.3046
    -7.7814  -7.6569  -7.5953  -7.2265  -6.5854  -6.3699  -6.2478  -6.2192
    -5.6404  -5.5782  -5.5190  -5.4481  -5.3687  -5.2484  -4.9647  -4.6474
    -4.6053  -4.5287  -3.7770  -3.6650  -3.6053  -3.2659  -3.1818  -3.0821
    -3.0394  -3.0191  -2.9055  -2.8215  -2.5741  -2.5426  -2.5217  -2.2363
    -2.0057  -1.8427  -1.8126  -1.3374  -1.2348  -1.1641  -0.9931  -0.8546
    -0.8347  -0.6374  -0.5423  -0.4679  -0.4308  -0.2072  -0.1967  -0.1447
     0.0055   0.1343   0.4073   0.7299   0.7683   0.9067   1.1545   1.2982

          k = 0.4583 0.2165 0.0000 (192855 PWs)   bands (ev):

   -53.7665 -25.7032 -25.6840 -25.6803 -10.3937 -10.2680  -9.3671  -9.2422
    -7.7194  -7.5950  -7.5338  -7.1651  -7.0425  -6.9198  -6.5242  -6.1583
    -6.0363  -5.9149  -5.5160  -5.3862  -4.9044  -4.8556  -4.7365  -4.5452
    -4.4252  -4.3066  -4.2549  -3.9164  -3.8551  -3.7587  -3.3026  -3.1202
    -2.9784  -2.9628  -2.7629  -2.4846  -2.3867  -2.3634  -2.2587  -2.2230
    -1.9111  -1.7836  -1.6663  -1.4727  -1.2787  -1.1908  -0.9753  -0.7847
    -0.6690  -0.5698  -0.3744  -0.1494  -0.0877  -0.0478   0.0597   0.0813
     0.1485   0.2698   0.4658   0.5370   0.5651   0.7415   0.7867   0.8963

          k = 0.4583 0.3608 0.0000 (192914 PWs)   bands (ev):

   -53.7665 -25.7032 -25.6840 -25.6803 -10.2682 -10.1426  -9.2422  -9.1175
    -7.6572  -7.5955  -7.5338  -7.4711  -7.4107  -7.0424  -6.6465  -6.5242
    -6.4019  -6.0364  -5.3931  -5.2633  -5.0248  -4.9043  -4.8555  -4.7834
    -4.4962  -4.4248  -4.0156  -3.9163  -3.8551  -3.5210  -3.0676  -3.0095
    -2.9749  -2.8725  -2.8439  -2.7603  -2.6451  -2.3676  -2.2581  -1.9938
    -1.6662  -1.2790  -1.2427  -1.1901  -1.1620  -0.9887  -0.6703  -0.5209
    -0.3814  -0.3720  -0.2591  -0.0933  -0.0477  -0.0280   0.0317   0.1616
     0.1821   0.1891   0.4647   0.5809   0.7403   0.8962   1.1748   1.3569

          k = 0.4583 0.5052 0.0000 (192934 PWs)   bands (ev):

   -53.7665 -25.7032 -25.6840 -25.6803 -10.0801  -9.9546  -9.0551  -8.9306
    -8.2126  -8.0887  -7.4100  -7.2860  -7.2264  -7.1981  -7.0754  -6.8585
    -6.2189  -5.8538  -5.5707  -5.4489  -5.3976  -5.2071  -5.0783  -5.0351
    -4.6030  -4.4073  -4.2451  -4.0500  -3.3957  -3.2728  -3.1298  -3.0293
    -2.8526  -2.8175  -2.6688  -2.5722  -2.4705  -2.1945  -2.0504  -2.0013
    -1.4913  -1.0954  -0.9883  -0.9766  -0.6330  -0.5451  -0.4958  -0.3307
    -0.2961  -0.2833  -0.2426  -0.0915   0.0061   0.1412   0.2055   0.2716
     0.3447   0.6600   0.7182   0.7464   0.9820   1.0531   1.2271   1.5417

          k = 0.4583 0.6495 0.0000 (193044 PWs)   bands (ev):

   -53.7665 -25.7032 -25.6840 -25.6803  -9.8297  -9.7044  -8.8061  -8.7082
    -8.6817  -8.5839  -7.6910  -7.5677  -7.1628  -7.0389  -6.9809  -6.6138
    -6.0578  -5.9751  -5.9351  -5.8824  -5.6109  -5.5184  -4.9627  -4.8857
    -4.8333  -4.5258  -4.3629  -4.0064  -3.8695  -3.7439  -3.3032  -2.9598
    -2.5870  -2.4329  -2.2412  -2.1969  -2.1030  -1.9669  -1.5327  -1.3882
    -1.3593  -1.3159  -1.2612  -0.7621  -0.7461  -0.7075  -0.2775  -0.1782
    -0.0529   0.1127   0.2573   0.3402   0.3646   0.4324   0.4840   0.5151
     0.5688   0.7168   0.9424   0.9882   1.0793   1.1528   1.2302   1.2487

          k = 0.4583 0.7939 0.0000 (193019 PWs)   bands (ev):

   -53.7665 -25.7032 -25.6840 -25.6803  -9.5173  -9.3923  -9.1433  -9.0186
    -8.4954  -8.3713  -8.1235  -7.9998  -6.8548  -6.7314  -6.6748  -6.4858
    -6.3629  -6.3085  -6.3084  -5.9432  -5.6713  -5.3084  -5.3077  -4.9461
    -4.6576  -4.5290  -4.2903  -4.1638  -4.0639  -3.7093  -3.7088  -3.3572
    -2.2979  -2.1411  -1.9686  -1.9283  -1.7884  -1.6939  -1.6898  -1.4827
    -1.0722  -0.9893  -0.9882  -0.6395  -0.4989  -0.1941  -0.1934  -0.0656
    -0.0424   0.0900   0.1094   0.2178   0.3824   0.4988   0.6209   0.6527
     0.7317   0.7940   0.8009   0.8871   1.0423   1.0470   1.0682   1.1888

          k = 0.4583-0.7939 0.0000 (193019 PWs)   bands (ev):

   -53.7665 -25.7032 -25.6840 -25.6803  -9.5173  -9.3923  -9.1433  -9.0186
    -8.4954  -8.3713  -8.1235  -7.9998  -6.8548  -6.7314  -6.6748  -6.4858
    -6.3629  -6.3085  -6.3084  -5.9432  -5.6713  -5.3084  -5.3077  -4.9461
    -4.6576  -4.5290  -4.2903  -4.1638  -4.0639  -3.7093  -3.7088  -3.3572
    -2.2979  -2.1411  -1.9686  -1.9283  -1.7884  -1.6939  -1.6898  -1.4827
    -1.0722  -0.9893  -0.9882  -0.6395  -0.4989  -0.1941  -0.1934  -0.0656
    -0.0424   0.0900   0.1094   0.2178   0.3824   0.4988   0.6209   0.6527
     0.7317   0.7940   0.8009   0.8871   1.0423   1.0470   1.0682   1.1888

          k = 0.4583-0.6495 0.0000 (193044 PWs)   bands (ev):

   -53.7665 -25.7032 -25.6840 -25.6803  -9.8297  -9.7044  -8.8061  -8.7082
    -8.6817  -8.5839  -7.6910  -7.5677  -7.1628  -7.0389  -6.9809  -6.6138
[...]

     atom    1 type  1   force =     0.00000941   -0.00000000   -0.00158626
     atom    2 type  1   force =     0.00079576   -0.00000000   -0.00435945
     atom    3 type  1   force =    -0.00057139    0.00000000    0.00465969
     atom    4 type  1   force =    -0.00007100   -0.00000000    0.00127679
     atom    5 type  1   force =     0.00063030   -0.00000000    0.00468997
     atom    6 type  1   force =     0.00001372    0.00000000    0.00313748
     atom    7 type  1   force =    -0.00069343    0.00000000   -0.00456508
     atom    8 type  1   force =    -0.00001854    0.00010823    0.00460594
     atom    9 type  1   force =     0.00058217   -0.00040659    0.00219947
     atom   10 type  1   force =    -0.00026418   -0.00004690   -0.00383210
     atom   11 type  1   force =     0.00038476    0.00003985   -0.00479827
     atom   12 type  1   force =     0.00029289    0.00024497   -0.00490779
     atom   13 type  1   force =    -0.00015430    0.00022853   -0.00483881
     atom   14 type  1   force =    -0.00085513   -0.00002937    0.00243195
     atom   15 type  1   force =     0.00027313    0.00040823    0.00335420
     atom   16 type  1   force =    -0.00001854   -0.00010823    0.00460594
     atom   17 type  1   force =     0.00058217    0.00040659    0.00219947
     atom   18 type  1   force =    -0.00026418    0.00004690   -0.00383210
     atom   19 type  1   force =     0.00038476   -0.00003985   -0.00479827
     atom   20 type  1   force =     0.00029289   -0.00024497   -0.00490779
     atom   21 type  1   force =    -0.00015430   -0.00022853   -0.00483881
     atom   22 type  1   force =    -0.00085513    0.00002937    0.00243195
     atom   23 type  1   force =     0.00027313   -0.00040823    0.00335420
     atom   24 type  1   force =     0.00000296    0.00000000    0.00459178
     atom   25 type  1   force =     0.00038378    0.00000000    0.00297476
     atom   26 type  1   force =    -0.00062468   -0.00000000   -0.00485229
     atom   27 type  1   force =    -0.00054571   -0.00000000   -0.00780943
     atom   28 type  1   force =     0.00047074    0.00000000   -0.00399135
     atom   29 type  1   force =     0.00021960    0.00000000   -0.00192111
     atom   30 type  1   force =     0.00005082   -0.00000000    0.00181223
     atom   31 type  1   force =    -0.00054525   -0.00000000    0.00339185
     atom   32 type  1   force =    -0.00001314   -0.00000000    0.01596850
     atom   33 type  2   force =     0.00000590   -0.00000000   -0.00184724
     The non-local contrib.  to forces
     atom    1 type  1   force =     0.00033572   -0.00000000   -0.03643377
     atom    2 type  1   force =    -0.00132382   -0.00000000   -0.00415083
     atom    3 type  1   force =     0.00082731   -0.00000000    0.00706240
     atom    4 type  1   force =    -0.00016685    0.00000000    0.04038632
     atom    5 type  1   force =    -0.00068974   -0.00000000    0.00777217
     atom    6 type  1   force =     0.00000461    0.00000000    0.04338273
     atom    7 type  1   force =     0.00101704    0.00000000   -0.00545067
     atom    8 type  1   force =     0.00156303    0.00021562    0.00758465
     atom    9 type  1   force =     0.00008546    0.00002514    0.04160179
     atom   10 type  1   force =    -0.00030228    0.00046410   -0.00439174
     atom   11 type  1   force =    -0.00069214   -0.00031367   -0.03870943
     atom   12 type  1   force =     0.00008332   -0.00018017   -0.00637893
     atom   13 type  1   force =     0.00031310   -0.00054585   -0.03790261
     atom   14 type  1   force =    -0.00026382    0.00003209    0.04092276
     atom   15 type  1   force =    -0.00129254    0.00005849    0.00480583
     atom   16 type  1   force =     0.00156303   -0.00021562    0.00758465
     atom   17 type  1   force =     0.00008546   -0.00002514    0.04160179
     atom   18 type  1   force =    -0.00030228   -0.00046410   -0.00439174
     atom   19 type  1   force =    -0.00069214    0.00031367   -0.03870943
     atom   20 type  1   force =     0.00008332    0.00018017   -0.00637893
     atom   21 type  1   force =     0.00031310    0.00054585   -0.03790261
     atom   22 type  1   force =    -0.00026382   -0.00003209    0.04092276
     atom   23 type  1   force =    -0.00129254   -0.00005849    0.00480583
     atom   24 type  1   force =    -0.00139138    0.00000000    0.00744532
     atom   25 type  1   force =    -0.00030625   -0.00000000    0.04236175
     atom   26 type  1   force =     0.00016663   -0.00000000   -0.00609993
     atom   27 type  1   force =     0.00007371   -0.00000000   -0.04255943
     atom   28 type  1   force =    -0.00076718    0.00000000   -0.00469944
     atom   29 type  1   force =     0.00073861    0.00000000   -0.03619456
     atom   30 type  1   force =     0.00002012   -0.00000000    0.04000100
     atom   31 type  1   force =     0.00138871    0.00000000    0.00485318
     atom   32 type  1   force =    -0.00013814   -0.00000000    0.01188004
     atom   33 type  2   force =    -0.00001397   -0.00000000   -0.29793002
     The ionic contribution  to forces
     atom    1 type  1   force =    -0.00000000   -0.00000000   -8.37606502
     atom    2 type  1   force =    -0.02536111   -0.00000000    3.95345377
     atom    3 type  1   force =     0.11081009   -0.00000000   -1.94142688
     atom    4 type  1   force =    -0.00000006   -0.00000000    9.82567551
     atom    5 type  1   force =    -0.11081017   -0.00000000   -2.04750200
     atom    6 type  1   force =     0.00000077   -0.00000000    9.83912590
     atom    7 type  1   force =     0.02536116    0.00000000    3.92595344
     atom    8 type  1   force =     0.06032958    0.00481562   -2.09630161
     atom    9 type  1   force =    -0.00667348    0.00006960    9.83234840
     atom   10 type  1   force =     0.01487576    0.00129928    3.96558533
     atom   11 type  1   force =    -0.54905601    0.11523895   -7.97428501
     atom   12 type  1   force =    -0.01443416   -0.00053435    3.91484010
     atom   13 type  1   force =     0.54905516   -0.11523890   -7.97428441
     atom   14 type  1   force =     0.00667272   -0.00006960    9.83234754
     atom   15 type  1   force =    -0.06886813   -0.01960496   -1.87323836
     atom   16 type  1   force =     0.06032958   -0.00481562   -2.09630161
     atom   17 type  1   force =    -0.00667348   -0.00006960    9.83234840
     atom   18 type  1   force =     0.01487576   -0.00129928    3.96558533
     atom   19 type  1   force =    -0.54905601   -0.11523895   -7.97428501
     atom   20 type  1   force =    -0.01443416    0.00053435    3.91484010
     atom   21 type  1   force =     0.54905516    0.11523890   -7.97428441
     atom   22 type  1   force =     0.00667272    0.00006960    9.83234754
     atom   23 type  1   force =    -0.06886813    0.01960496   -1.87323836
     atom   24 type  1   force =    -0.10383394   -0.00000000   -2.06024273
     atom   25 type  1   force =     0.00000077   -0.00000000    9.83893237
     atom   26 type  1   force =     0.02495071    0.00000000    3.92466820
     atom   27 type  1   force =     0.00000071   -0.00000000   -7.59590775
     atom   28 type  1   force =    -0.02583392   -0.00000000    3.95575694
     atom   29 type  1   force =    -0.00000000   -0.00000000   -8.35266187
     atom   30 type  1   force =    -0.00000006    0.00000000    9.82576353
     atom   31 type  1   force =     0.12091112    0.00000000   -1.90929750
     atom   32 type  1   force =     0.00000071    0.00000000   -6.74874263
     atom   33 type  2   force =     0.00000032   -0.00000000  -31.31150724
     The local contribution  to forces
     atom    1 type  1   force =    -0.00030206    0.00000000    8.37308459
     atom    2 type  1   force =     0.02739284   -0.00000000   -3.98755152
     atom    3 type  1   force =    -0.11215411    0.00000000    1.90573640
     atom    4 type  1   force =     0.00008267   -0.00000000   -9.89404919
     atom    5 type  1   force =     0.11208405    0.00000000    2.01117625
     atom    6 type  1   force =     0.00001145    0.00000000   -9.90843008
     atom    7 type  1   force =    -0.02700548   -0.00000000   -3.95904179
     atom    8 type  1   force =    -0.06180690   -0.00490953    2.06006893
     atom    9 type  1   force =     0.00718456   -0.00049861   -9.90092960
     atom   10 type  1   force =    -0.01486103   -0.00177913   -3.99893721
     atom   11 type  1   force =     0.55009085   -0.11490577    7.97021084
     atom   12 type  1   force =     0.01465145    0.00094575   -3.94740333
     atom   13 type  1   force =    -0.54950726    0.11597495    7.96941553
     atom   14 type  1   force =    -0.00728933    0.00001087   -9.90006311
     atom   15 type  1   force =     0.07034525    0.01995385    1.83836895
     atom   16 type  1   force =    -0.06180690    0.00490953    2.06006893
     atom   17 type  1   force =     0.00718456    0.00049861   -9.90092960
     atom   18 type  1   force =    -0.01486103    0.00177913   -3.99893721
     atom   19 type  1   force =     0.55009085    0.11490577    7.97021084
     atom   20 type  1   force =     0.01465145   -0.00094575   -3.94740333
     atom   21 type  1   force =    -0.54950726   -0.11597495    7.96941553
     atom   22 type  1   force =    -0.00728933   -0.00001087   -9.90006311
     atom   23 type  1   force =     0.07034525   -0.01995385    1.83836895
     atom   24 type  1   force =     0.10514043    0.00000000    2.02412536
     atom   25 type  1   force =     0.00066928    0.00000000   -9.90744404
     atom   26 type  1   force =    -0.02573464    0.00000000   -3.95743428
     atom   27 type  1   force =    -0.00061377    0.00000000    7.59240184
     atom   28 type  1   force =     0.02702535   -0.00000000   -3.98898201
     atom   29 type  1   force =    -0.00046989   -0.00000000    8.34912519
     atom   30 type  1   force =     0.00003055    0.00000000   -9.89324107
     atom   31 type  1   force =    -0.12275121   -0.00000000    1.87442213
     atom   32 type  1   force =     0.00011334    0.00000000    6.71862180
     atom   33 type  2   force =     0.00001599    0.00000000   31.50652561
     The core correction contribution to forces
     atom    1 type  1   force =    -0.00002194    0.00000000    0.00414694
     atom    2 type  1   force =     0.00009288    0.00000000    0.00020541
     atom    3 type  1   force =    -0.00005640    0.00000000   -0.00039260
     atom    4 type  1   force =     0.00001163   -0.00000000   -0.00441601
     atom    5 type  1   force =     0.00004799    0.00000000   -0.00044177
     atom    6 type  1   force =    -0.00000140    0.00000000   -0.00462478
     atom    7 type  1   force =    -0.00007135   -0.00000000    0.00029019
     atom    8 type  1   force =    -0.00010351   -0.00001346   -0.00043088
     atom    9 type  1   force =    -0.00000815   -0.00000275   -0.00450305
     atom   10 type  1   force =     0.00002111   -0.00003109    0.00023058
     atom   11 type  1   force =     0.00004034    0.00002032    0.00430530
     atom   12 type  1   force =    -0.00000527    0.00001377    0.00034784
     atom   13 type  1   force =    -0.00001360    0.00003830    0.00425207
     atom   14 type  1   force =     0.00001895   -0.00000275   -0.00445734
     atom   15 type  1   force =     0.00008773    0.00000089   -0.00026318
     atom   16 type  1   force =    -0.00010351    0.00001346   -0.00043088
     atom   17 type  1   force =    -0.00000815    0.00000275   -0.00450305
     atom   18 type  1   force =     0.00002111    0.00003109    0.00023058
     atom   19 type  1   force =     0.00004034   -0.00002032    0.00430530
     atom   20 type  1   force =    -0.00000527   -0.00001377    0.00034784
     atom   21 type  1   force =    -0.00001360   -0.00003830    0.00425207
     atom   22 type  1   force =     0.00001895    0.00000275   -0.00445734
     atom   23 type  1   force =     0.00008773   -0.00000089   -0.00026318
     atom   24 type  1   force =     0.00008963   -0.00000000   -0.00042151
     atom   25 type  1   force =     0.00002172    0.00000000   -0.00455903
     atom   26 type  1   force =    -0.00001264    0.00000000    0.00032995
     atom   27 type  1   force =    -0.00000865    0.00000000    0.00457622
     atom   28 type  1   force =     0.00005149   -0.00000000    0.00024942
     atom   29 type  1   force =    -0.00004680    0.00000000    0.00412914
     atom   30 type  1   force =    -0.00000140    0.00000000   -0.00439140
     atom   31 type  1   force =    -0.00009563   -0.00000000   -0.00026639
     atom   32 type  1   force =     0.00000862    0.00000000    0.00052971
     atom   33 type  2   force =     0.00000000    0.00000000    0.00000000
     The Hubbard contrib.    to forces
     atom    1 type  1   force =     0.00000000    0.00000000    0.00000000
     atom    2 type  1   force =     0.00000000    0.00000000    0.00000000
     atom    3 type  1   force =     0.00000000    0.00000000    0.00000000
     atom    4 type  1   force =     0.00000000    0.00000000    0.00000000
     atom    5 type  1   force =     0.00000000    0.00000000    0.00000000
     atom    6 type  1   force =     0.00000000    0.00000000    0.00000000
     atom    7 type  1   force =     0.00000000    0.00000000    0.00000000
     atom    8 type  1   force =     0.00000000    0.00000000    0.00000000
     atom    9 type  1   force =     0.00000000    0.00000000    0.00000000
     atom   10 type  1   force =     0.00000000    0.00000000    0.00000000
     atom   11 type  1   force =     0.00000000    0.00000000    0.00000000
     atom   12 type  1   force =     0.00000000    0.00000000    0.00000000
     atom   13 type  1   force =     0.00000000    0.00000000    0.00000000
     atom   14 type  1   force =     0.00000000    0.00000000    0.00000000
     atom   15 type  1   force =     0.00000000    0.00000000    0.00000000
     atom   16 type  1   force =     0.00000000    0.00000000    0.00000000
     atom   17 type  1   force =     0.00000000    0.00000000    0.00000000
     atom   18 type  1   force =     0.00000000    0.00000000    0.00000000
     atom   19 type  1   force =     0.00000000    0.00000000    0.00000000
     atom   20 type  1   force =     0.00000000    0.00000000    0.00000000
     atom   21 type  1   force =     0.00000000    0.00000000    0.00000000
     atom   22 type  1   force =     0.00000000    0.00000000    0.00000000
     atom   23 type  1   force =     0.00000000    0.00000000    0.00000000
     atom   24 type  1   force =     0.00000000    0.00000000    0.00000000
     atom   25 type  1   force =     0.00000000    0.00000000    0.00000000
     atom   26 type  1   force =     0.00000000    0.00000000    0.00000000
     atom   27 type  1   force =     0.00000000    0.00000000    0.00000000
     atom   28 type  1   force =     0.00000000    0.00000000    0.00000000
     atom   29 type  1   force =     0.00000000    0.00000000    0.00000000
     atom   30 type  1   force =     0.00000000    0.00000000    0.00000000
     atom   31 type  1   force =     0.00000000    0.00000000    0.00000000
     atom   32 type  1   force =     0.00000000    0.00000000    0.00000000
     atom   33 type  2   force =     0.00000000    0.00000000    0.00000000
     The SCF correction term to forces
     atom    1 type  1   force =    -0.00000231   -0.00000000    0.00000167
     atom    2 type  1   force =    -0.00000503    0.00000000    0.00000441
     atom    3 type  1   force =     0.00000172   -0.00000000    0.00000106
     atom    4 type  1   force =     0.00000160    0.00000000    0.00000085
     atom    5 type  1   force =    -0.00000182    0.00000000    0.00000600
     atom    6 type  1   force =    -0.00000171    0.00000000    0.00000439
     atom    7 type  1   force =     0.00000520    0.00000000    0.00000443
     atom    8 type  1   force =    -0.00000074   -0.00000003    0.00000553
     atom    9 type  1   force =    -0.00000622    0.00000002    0.00000261
     atom   10 type  1   force =     0.00000224   -0.00000006    0.00000162
     atom   11 type  1   force =     0.00000171    0.00000001    0.00000071
     atom   12 type  1   force =    -0.00000246   -0.00000001    0.00000721
     atom   13 type  1   force =    -0.00000169    0.00000003    0.00000129
     atom   14 type  1   force =     0.00000634    0.00000001    0.00000277
     atom   15 type  1   force =     0.00000081   -0.00000004    0.00000164
     atom   16 type  1   force =    -0.00000074    0.00000003    0.00000553
     atom   17 type  1   force =    -0.00000622   -0.00000002    0.00000261
     atom   18 type  1   force =     0.00000224    0.00000006    0.00000162
     atom   19 type  1   force =     0.00000171   -0.00000001    0.00000071
     atom   20 type  1   force =    -0.00000246    0.00000001    0.00000721
     atom   21 type  1   force =    -0.00000169   -0.00000003    0.00000129
     atom   22 type  1   force =     0.00000634   -0.00000001    0.00000277
     atom   23 type  1   force =     0.00000081    0.00000004    0.00000164
     atom   24 type  1   force =    -0.00000178   -0.00000000    0.00000602
     atom   25 type  1   force =    -0.00000174   -0.00000000    0.00000439
     atom   26 type  1   force =     0.00000525   -0.00000000    0.00000445
     atom   27 type  1   force =     0.00000229    0.00000000    0.00000036
     atom   28 type  1   force =    -0.00000499   -0.00000000    0.00000442
     atom   29 type  1   force =    -0.00000233    0.00000000    0.00000166
     atom   30 type  1   force =     0.00000160   -0.00000000    0.00000085
     atom   31 type  1   force =     0.00000175    0.00000000    0.00000111
     atom   32 type  1   force =     0.00000232   -0.00000000    0.00000025
     atom   33 type  2   force =     0.00000354   -0.00000000   -0.00000214

     Total force =     0.027727     Total SCF correction =     0.000028

     Writing all to output data dir ./temp2/AlwithNa_0D008.save/

     init_run     :     19.87s CPU     13.10s WALL (       1 calls)
     electrons    :    689.13s CPU    434.27s WALL (       1 calls)
     forces       :     10.95s CPU      6.22s WALL (       1 calls)

     Called by init_run:
     wfcinit      :      9.75s CPU      6.07s WALL (       1 calls)
     potinit      :      4.59s CPU      2.51s WALL (       1 calls)
     hinit0       :      5.15s CPU      4.13s WALL (       1 calls)

     Called by electrons:
     c_bands      :    587.67s CPU    378.77s WALL (      34 calls)
     sum_band     :     93.25s CPU     48.38s WALL (      34 calls)
     v_of_rho     :      5.83s CPU      4.87s WALL (      35 calls)
     mix_rho      :      2.01s CPU      1.89s WALL (      34 calls)

     Called by c_bands:
     init_us_2    :     25.13s CPU     12.65s WALL (     420 calls)
     init_us_2:cp :     25.12s CPU     12.65s WALL (     420 calls)
     cegterg      :    492.65s CPU    311.70s WALL (     204 calls)

     Called by *egterg:
     cdiaghg      :      3.57s CPU      3.59s WALL (    1039 calls)
     h_psi        :    445.67s CPU    269.02s WALL (    1045 calls)
     g_psi        :      2.04s CPU      1.03s WALL (     835 calls)

     Called by h_psi:
     h_psi:calbec :     42.30s CPU     36.92s WALL (    1045 calls)
     vloc_psi     :    355.99s CPU    186.48s WALL (    1045 calls)
     add_vuspsi   :     43.53s CPU     43.65s WALL (    1045 calls)

     General routines
     calbec       :     43.71s CPU     38.22s WALL (    1069 calls)
     fft          :      2.94s CPU      3.08s WALL (     360 calls)
     ffts         :      0.18s CPU      0.21s WALL (      34 calls)
     fftw         :    319.35s CPU    168.82s WALL (   88904 calls)

     Parallel routines

     PWSCF        :  12m 1.02s CPU   7m35.54s WALL


   This run was terminated on:  21:25: 6  20Mar2025            

=------------------------------------------------------------------------------=
   JOB DONE.
=------------------------------------------------------------------------------=
