
     Program PWSCF v.7.2 starts on 20Mar2025 at 21:25:11 

     This program is part of the open-source Quantum ESPRESSO suite
     for quantum simulation of materials; please cite
         "P. Giannozzi et al., J. Phys.:Condens. Matter 21 395502 (2009);
         "P. Giannozzi et al., J. Phys.:Condens. Matter 29 465901 (2017);
         "P. Giannozzi et al., J. Chem. Phys. 152 154105 (2020);
          URL http://www.quantum-espresso.org", 
     in publications or presentations arising from this work. More details at
     http://www.quantum-espresso.org/quote

     Parallel version (MPI & OpenMP), running on     384 processor cores
     Number of MPI processes:               192
     Threads/MPI process:                     2

     MPI processes distributed on     8 nodes
     728050 MiB available memory on the printing compute node when the environment starts

     Reading input from Al111slabWithNa_M0D008Ha.sc.in

     Current dimensions of program PWSCF are:
     Max number of different atomic species (ntypx) = 10
     Max number of k-points (npk) =  40000
     Max angular momentum in pseudopotentials (lmaxx) =  4

     K-points division:     npool     =      12
     R & G space division:  proc/nbgrp/npool/nimage =      16
     Subspace diagonalization in iterative solution of the eigenvalue problem:
     a serial algorithm will be used


     Parallelization info
     --------------------
     sticks:   dense  smooth     PW     G-vecs:    dense   smooth      PW
     Min         401     401    106                96479    96479   13202
     Max         402     402    107                96492    96492   13217
     Sum        6419    6419   1707              1543747  1543747  211325

     Using Slab Decomposition



     bravais-lattice index     =            0
     lattice parameter (alat)  =      18.6834  a.u.
     unit-cell volume          =   11425.3995 (a.u.)^3
     number of atoms/cell      =           33
     number of atomic types    =            2
     number of electrons       =       105.00
     number of Kohn-Sham states=           64
     kinetic-energy cutoff     =     100.0000  Ry
     charge density cutoff     =     400.0000  Ry
     scf convergence threshold =      1.0E-09
     mixing beta               =       0.7000
     number of iterations used =            8  plain     mixing
     Exchange-correlation= PBE
                           (   1   4   3   4   0   0   0)

     celldm(1)=  18.683402  celldm(2)=   0.000000  celldm(3)=   0.000000
     celldm(4)=   0.000000  celldm(5)=   0.000000  celldm(6)=   0.000000

     crystal axes: (cart. coord. in units of alat)
               a(1) = (   1.000000   0.000000   0.000000 )  
               a(2) = (   0.000000   0.577350   0.000000 )  
               a(3) = (   0.000000   0.000000   3.034340 )  

     reciprocal axes: (cart. coord. in units 2 pi/alat)
               b(1) = (  1.000000  0.000000  0.000000 )  
               b(2) = (  0.000000  1.732051  0.000000 )  
               b(3) = (  0.000000  0.000000  0.329561 )  


     PseudoPot. # 1 for Al read from file:
     ./Al.upf
     MD5 check sum: a92309766db89a6b54a5f8790cc4d69e
     Pseudo is Norm-conserving + core correction, Zval =  3.0
     Generated using ONCVPSP code by D. R. Hamann
     Using radial grid of 1876 points,  6 beta functions with: 
                l(1) =   0
                l(2) =   0
                l(3) =   1
                l(4) =   1
                l(5) =   2
                l(6) =   2

     PseudoPot. # 2 for Na read from file:
     ./Na.upf
     MD5 check sum: ed5af011864af3d1529ce3b51bbccf87
     Pseudo is Norm-conserving, Zval =  9.0
     Generated using ONCVPSP code by D. R. Hamann
     Using radial grid of 1992 points,  4 beta functions with: 
                l(1) =   0
                l(2) =   0
                l(3) =   1
                l(4) =   1

     atomic species   valence    mass     pseudopotential
        Al             3.00    26.00000     Al( 1.00)
        Na             9.00    23.00000     Na( 1.00)

     No symmetry found



   Cartesian axes

     site n.     atom                  positions (alat units)
         1           Al  tau(   1) = (   0.0000000   0.0000000   1.1636163  )
         2           Al  tau(   2) = (   0.3333333   0.0000000   1.6350208  )
         3           Al  tau(   3) = (   0.6666666   0.0000000   1.3993186  )
         4           Al  tau(   4) = (   0.0000000   0.0000000   1.8707232  )
         5           Al  tau(   5) = (   0.1666667   0.2886751   1.3993186  )
         6           Al  tau(   6) = (   0.5000000   0.2886751   1.8707232  )
         7           Al  tau(   7) = (   0.8333333   0.2886751   1.6350208  )
         8           Al  tau(   8) = (   0.9166667   0.4330127   1.3993186  )
         9           Al  tau(   9) = (   0.2500001   0.4330127   1.8707232  )
        10           Al  tau(  10) = (   0.5833333   0.4330127   1.6350208  )
        11           Al  tau(  11) = (   0.2500001   0.4330127   1.1636163  )
        12           Al  tau(  12) = (   0.0833334   0.1443376   1.6350208  )
        13           Al  tau(  13) = (   0.7500000   0.1443376   1.1636163  )
        14           Al  tau(  14) = (   0.7500000   0.1443376   1.8707232  )
        15           Al  tau(  15) = (   0.4166666   0.1443376   1.3993186  )
        16           Al  tau(  16) = (   0.9166667   0.1443376   1.3993186  )
        17           Al  tau(  17) = (   0.2500001   0.1443376   1.8707232  )
        18           Al  tau(  18) = (   0.5833333   0.1443376   1.6350208  )
        19           Al  tau(  19) = (   0.2500001   0.1443376   1.1636163  )
        20           Al  tau(  20) = (   0.0833334   0.4330127   1.6350208  )
        21           Al  tau(  21) = (   0.7500000   0.4330127   1.1636163  )
        22           Al  tau(  22) = (   0.7500000   0.4330127   1.8707232  )
        23           Al  tau(  23) = (   0.4166666   0.4330127   1.3993186  )
        24           Al  tau(  24) = (   0.1666667   0.0000000   1.3993186  )
        25           Al  tau(  25) = (   0.5000000   0.0000000   1.8707232  )
        26           Al  tau(  26) = (   0.8333333   0.0000000   1.6350208  )
        27           Al  tau(  27) = (   0.5000000   0.0000000   1.1636163  )
        28           Al  tau(  28) = (   0.3333333   0.2886751   1.6350208  )
        29           Al  tau(  29) = (   0.0000000   0.2886751   1.1636163  )
        30           Al  tau(  30) = (   0.0000000   0.2886751   1.8707232  )
        31           Al  tau(  31) = (   0.6666666   0.2886751   1.3993186  )
        32           Al  tau(  32) = (   0.5000000   0.2886751   1.1636163  )
        33           Na  tau(  33) = (   0.5000000   0.2886751   0.8799585  )

     number of k points=    72  Fermi-Dirac smearing, width (Ry)=  0.0032
                       cart. coord. in units 2pi/alat
        k(    1) = (   0.0416667   0.0721688   0.0000000), wk =   0.0277778
        k(    2) = (   0.0416667   0.2165063   0.0000000), wk =   0.0277778
        k(    3) = (   0.0416667   0.3608439   0.0000000), wk =   0.0277778
        k(    4) = (   0.0416667   0.5051815   0.0000000), wk =   0.0277778
        k(    5) = (   0.0416667   0.6495190   0.0000000), wk =   0.0277778
        k(    6) = (   0.0416667   0.7938566   0.0000000), wk =   0.0277778
        k(    7) = (   0.0416667  -0.7938566   0.0000000), wk =   0.0277778
        k(    8) = (   0.0416667  -0.6495190   0.0000000), wk =   0.0277778
        k(    9) = (   0.0416667  -0.5051815   0.0000000), wk =   0.0277778
        k(   10) = (   0.0416667  -0.3608439   0.0000000), wk =   0.0277778
        k(   11) = (   0.0416667  -0.2165063   0.0000000), wk =   0.0277778
        k(   12) = (   0.0416667  -0.0721688   0.0000000), wk =   0.0277778
        k(   13) = (   0.1250000   0.0721688   0.0000000), wk =   0.0277778
        k(   14) = (   0.1250000   0.2165063   0.0000000), wk =   0.0277778
        k(   15) = (   0.1250000   0.3608439   0.0000000), wk =   0.0277778
        k(   16) = (   0.1250000   0.5051815   0.0000000), wk =   0.0277778
        k(   17) = (   0.1250000   0.6495190   0.0000000), wk =   0.0277778
        k(   18) = (   0.1250000   0.7938566   0.0000000), wk =   0.0277778
        k(   19) = (   0.1250000  -0.7938566   0.0000000), wk =   0.0277778
        k(   20) = (   0.1250000  -0.6495190   0.0000000), wk =   0.0277778
        k(   21) = (   0.1250000  -0.5051815   0.0000000), wk =   0.0277778
        k(   22) = (   0.1250000  -0.3608439   0.0000000), wk =   0.0277778
        k(   23) = (   0.1250000  -0.2165063   0.0000000), wk =   0.0277778
        k(   24) = (   0.1250000  -0.0721688   0.0000000), wk =   0.0277778
        k(   25) = (   0.2083333   0.0721688   0.0000000), wk =   0.0277778
        k(   26) = (   0.2083333   0.2165063   0.0000000), wk =   0.0277778
        k(   27) = (   0.2083333   0.3608439   0.0000000), wk =   0.0277778
        k(   28) = (   0.2083333   0.5051815   0.0000000), wk =   0.0277778
        k(   29) = (   0.2083333   0.6495190   0.0000000), wk =   0.0277778
        k(   30) = (   0.2083333   0.7938566   0.0000000), wk =   0.0277778
        k(   31) = (   0.2083333  -0.7938566   0.0000000), wk =   0.0277778
        k(   32) = (   0.2083333  -0.6495190   0.0000000), wk =   0.0277778
        k(   33) = (   0.2083333  -0.5051815   0.0000000), wk =   0.0277778
        k(   34) = (   0.2083333  -0.3608439   0.0000000), wk =   0.0277778
        k(   35) = (   0.2083333  -0.2165063   0.0000000), wk =   0.0277778
        k(   36) = (   0.2083333  -0.0721688   0.0000000), wk =   0.0277778
        k(   37) = (   0.2916667   0.0721688   0.0000000), wk =   0.0277778
        k(   38) = (   0.2916667   0.2165063   0.0000000), wk =   0.0277778
        k(   39) = (   0.2916667   0.3608439   0.0000000), wk =   0.0277778
        k(   40) = (   0.2916667   0.5051815   0.0000000), wk =   0.0277778
        k(   41) = (   0.2916667   0.6495190   0.0000000), wk =   0.0277778
        k(   42) = (   0.2916667   0.7938566   0.0000000), wk =   0.0277778
        k(   43) = (   0.2916667  -0.7938566   0.0000000), wk =   0.0277778
        k(   44) = (   0.2916667  -0.6495190   0.0000000), wk =   0.0277778
        k(   45) = (   0.2916667  -0.5051815   0.0000000), wk =   0.0277778
        k(   46) = (   0.2916667  -0.3608439   0.0000000), wk =   0.0277778
        k(   47) = (   0.2916667  -0.2165063   0.0000000), wk =   0.0277778
        k(   48) = (   0.2916667  -0.0721688   0.0000000), wk =   0.0277778
        k(   49) = (   0.3750000   0.0721688   0.0000000), wk =   0.0277778
        k(   50) = (   0.3750000   0.2165063   0.0000000), wk =   0.0277778
        k(   51) = (   0.3750000   0.3608439   0.0000000), wk =   0.0277778
        k(   52) = (   0.3750000   0.5051815   0.0000000), wk =   0.0277778
        k(   53) = (   0.3750000   0.6495190   0.0000000), wk =   0.0277778
        k(   54) = (   0.3750000   0.7938566   0.0000000), wk =   0.0277778
        k(   55) = (   0.3750000  -0.7938566   0.0000000), wk =   0.0277778
        k(   56) = (   0.3750000  -0.6495190   0.0000000), wk =   0.0277778
        k(   57) = (   0.3750000  -0.5051815   0.0000000), wk =   0.0277778
        k(   58) = (   0.3750000  -0.3608439   0.0000000), wk =   0.0277778
        k(   59) = (   0.3750000  -0.2165063   0.0000000), wk =   0.0277778
        k(   60) = (   0.3750000  -0.0721688   0.0000000), wk =   0.0277778
        k(   61) = (   0.4583333   0.0721688   0.0000000), wk =   0.0277778
        k(   62) = (   0.4583333   0.2165063   0.0000000), wk =   0.0277778
        k(   63) = (   0.4583333   0.3608439   0.0000000), wk =   0.0277778
        k(   64) = (   0.4583333   0.5051815   0.0000000), wk =   0.0277778
        k(   65) = (   0.4583333   0.6495190   0.0000000), wk =   0.0277778
        k(   66) = (   0.4583333   0.7938566   0.0000000), wk =   0.0277778
        k(   67) = (   0.4583333  -0.7938566   0.0000000), wk =   0.0277778
        k(   68) = (   0.4583333  -0.6495190   0.0000000), wk =   0.0277778
        k(   69) = (   0.4583333  -0.5051815   0.0000000), wk =   0.0277778
        k(   70) = (   0.4583333  -0.3608439   0.0000000), wk =   0.0277778
        k(   71) = (   0.4583333  -0.2165063   0.0000000), wk =   0.0277778
        k(   72) = (   0.4583333  -0.0721688   0.0000000), wk =   0.0277778

     Dense  grid:  1543747 G-vectors     FFT dimensions: ( 120,  72, 375)

     Estimated max dynamical RAM per process >     299.74 MB

     Estimated total dynamical RAM >      52.15 GB

     Initial potential from superposition of free atoms

     starting charge     104.9155, renormalised to     105.0000

     negative rho (up, down):  4.627E-05 0.000E+00

     Adding external electric field

     Computed dipole along edir(3) : 
        Dipole                0.0117 Ry au,          0.0297 Debye
        Dipole field          0.0000 Ry au, 

        E field amplitude [Ha a.u.]: -8.0000E-03
        Potential amp.       -0.7268 Ry
        Total length         45.3534 bohr

     Starting wfcs are  133 atomic wfcs

     total cpu time spent up to now is       13.2 secs

     Self-consistent Calculation

     iteration #  1     ecut=   100.00 Ry     beta= 0.70
     Davidson diagonalization with overlap
     ethr =  1.00E-02,  avg # of iterations =  3.0

     negative rho (up, down):  9.641E-06 0.000E+00

     Adding external electric field

     Computed dipole along edir(3) : 
        Dipole              -66.5301 Ry au,       -169.1027 Debye
        Dipole field         -0.0732 Ry au, 

        E field amplitude [Ha a.u.]: -8.0000E-03
        Potential amp.        5.9117 Ry
        Total length         45.3534 bohr


     total cpu time spent up to now is       25.7 secs

     total energy              =    -209.87674439 Ry
     estimated scf accuracy    <      34.09942766 Ry

     iteration #  2     ecut=   100.00 Ry     beta= 0.70
     Davidson diagonalization with overlap
     c_bands:  2 eigenvalues not converged
     c_bands:  1 eigenvalues not converged
     c_bands:  1 eigenvalues not converged
     ethr =  1.00E-02,  avg # of iterations = 19.9

     negative rho (up, down):  1.293E-06 0.000E+00

     Adding external electric field

     Computed dipole along edir(3) : 
        Dipole               -2.9414 Ry au,         -7.4763 Debye
        Dipole field         -0.0032 Ry au, 

        E field amplitude [Ha a.u.]: -8.0000E-03
        Potential amp.       -0.4322 Ry
        Total length         45.3534 bohr


     total cpu time spent up to now is       76.4 secs

     total energy              =    -164.66592310 Ry
     estimated scf accuracy    <    4334.51014590 Ry

     iteration #  3     ecut=   100.00 Ry     beta= 0.70
     Davidson diagonalization with overlap
     ethr =  1.00E-02,  avg # of iterations =  8.2

     negative rho (up, down):  3.974E-07 0.000E+00

     Adding external electric field

     Computed dipole along edir(3) : 
        Dipole                0.0615 Ry au,          0.1563 Debye
        Dipole field          0.0001 Ry au, 

        E field amplitude [Ha a.u.]: -8.0000E-03
        Potential amp.       -0.7318 Ry
        Total length         45.3534 bohr


     total cpu time spent up to now is      101.7 secs

     total energy              =    -221.01666997 Ry
     estimated scf accuracy    <    1069.82984504 Ry

     iteration #  4     ecut=   100.00 Ry     beta= 0.70
     Davidson diagonalization with overlap
     ethr =  1.00E-02,  avg # of iterations =  8.2

     negative rho (up, down):  1.108E-07 0.000E+00

     Adding external electric field

     Computed dipole along edir(3) : 
        Dipole                1.3739 Ry au,          3.4922 Debye
        Dipole field          0.0015 Ry au, 

        E field amplitude [Ha a.u.]: -8.0000E-03
        Potential amp.       -0.8627 Ry
        Total length         45.3534 bohr


     total cpu time spent up to now is      123.5 secs

     total energy              =    -239.02926773 Ry
     estimated scf accuracy    <      78.22706026 Ry

     iteration #  5     ecut=   100.00 Ry     beta= 0.70
     Davidson diagonalization with overlap
     ethr =  1.00E-02,  avg # of iterations =  2.2

     negative rho (up, down):  1.063E-06 0.000E+00

     Adding external electric field

     Computed dipole along edir(3) : 
        Dipole                0.8282 Ry au,          2.1050 Debye
        Dipole field          0.0009 Ry au, 

        E field amplitude [Ha a.u.]: -8.0000E-03
        Potential amp.       -0.8083 Ry
        Total length         45.3534 bohr


     total cpu time spent up to now is      133.2 secs

     total energy              =    -238.84449720 Ry
     estimated scf accuracy    <      38.58664956 Ry

     iteration #  6     ecut=   100.00 Ry     beta= 0.70
     Davidson diagonalization with overlap
     ethr =  1.00E-02,  avg # of iterations =  2.2

     negative rho (up, down):  4.743E-05 0.000E+00

     Adding external electric field

     Computed dipole along edir(3) : 
        Dipole                1.1436 Ry au,          2.9068 Debye
        Dipole field          0.0013 Ry au, 

        E field amplitude [Ha a.u.]: -8.0000E-03
        Potential amp.       -0.8397 Ry
        Total length         45.3534 bohr


     total cpu time spent up to now is      142.5 secs

     total energy              =    -238.64521190 Ry
     estimated scf accuracy    <      10.20126704 Ry

     iteration #  7     ecut=   100.00 Ry     beta= 0.70
     Davidson diagonalization with overlap
     ethr =  9.72E-03,  avg # of iterations =  2.8

     negative rho (up, down):  1.405E-05 0.000E+00

     Adding external electric field

     Computed dipole along edir(3) : 
        Dipole                0.3199 Ry au,          0.8132 Debye
        Dipole field          0.0004 Ry au, 

        E field amplitude [Ha a.u.]: -8.0000E-03
        Potential amp.       -0.7576 Ry
        Total length         45.3534 bohr


     total cpu time spent up to now is      152.4 secs

     total energy              =    -239.42009341 Ry
     estimated scf accuracy    <       0.98436523 Ry

     iteration #  8     ecut=   100.00 Ry     beta= 0.70
     Davidson diagonalization with overlap
     ethr =  9.37E-04,  avg # of iterations =  6.4

     negative rho (up, down):  1.338E-06 0.000E+00

     Adding external electric field

     Computed dipole along edir(3) : 
        Dipole               -0.1460 Ry au,         -0.3711 Debye
        Dipole field         -0.0002 Ry au, 

        E field amplitude [Ha a.u.]: -8.0000E-03
        Potential amp.       -0.7111 Ry
        Total length         45.3534 bohr


     total cpu time spent up to now is      166.6 secs

     total energy              =    -239.48301051 Ry
     estimated scf accuracy    <       4.32699575 Ry

     iteration #  9     ecut=   100.00 Ry     beta= 0.70
     Davidson diagonalization with overlap
     ethr =  9.37E-04,  avg # of iterations =  1.1

     Adding external electric field

     Computed dipole along edir(3) : 
        Dipole               -2.0358 Ry au,         -5.1745 Debye
        Dipole field         -0.0022 Ry au, 

        E field amplitude [Ha a.u.]: -8.0000E-03
        Potential amp.       -0.5226 Ry
        Total length         45.3534 bohr


     total cpu time spent up to now is      175.1 secs

     total energy              =    -239.20247259 Ry
     estimated scf accuracy    <       1.58117075 Ry

     iteration # 10     ecut=   100.00 Ry     beta= 0.70
     Davidson diagonalization with overlap
     ethr =  9.37E-04,  avg # of iterations =  3.6

     Adding external electric field

     Computed dipole along edir(3) : 
        Dipole               -2.1588 Ry au,         -5.4872 Debye
        Dipole field         -0.0024 Ry au, 

        E field amplitude [Ha a.u.]: -8.0000E-03
        Potential amp.       -0.5103 Ry
        Total length         45.3534 bohr


     total cpu time spent up to now is      186.2 secs

     total energy              =    -239.50751345 Ry
     estimated scf accuracy    <       6.50395164 Ry

     iteration # 11     ecut=   100.00 Ry     beta= 0.70
     Davidson diagonalization with overlap
     ethr =  9.37E-04,  avg # of iterations =  1.0

     negative rho (up, down):  3.245E-03 0.000E+00

     Adding external electric field

     Computed dipole along edir(3) : 
        Dipole               -1.6032 Ry au,         -4.0750 Debye
        Dipole field         -0.0018 Ry au, 

        E field amplitude [Ha a.u.]: -8.0000E-03
        Potential amp.       -0.5657 Ry
        Total length         45.3534 bohr


     total cpu time spent up to now is      194.5 secs

     total energy              =    -238.73302804 Ry
     estimated scf accuracy    <       4.45434234 Ry

     iteration # 12     ecut=   100.00 Ry     beta= 0.70
     Davidson diagonalization with overlap
     ethr =  9.37E-04,  avg # of iterations = 14.2

     negative rho (up, down):  3.409E-06 0.000E+00

     Adding external electric field

     Computed dipole along edir(3) : 
        Dipole               -4.3031 Ry au,        -10.9373 Debye
        Dipole field         -0.0047 Ry au, 

        E field amplitude [Ha a.u.]: -8.0000E-03
        Potential amp.       -0.2964 Ry
        Total length         45.3534 bohr


     total cpu time spent up to now is      214.8 secs

     total energy              =    -238.42441474 Ry
     estimated scf accuracy    <      55.42532309 Ry

     iteration # 13     ecut=   100.00 Ry     beta= 0.70
     Davidson diagonalization with overlap
     ethr =  9.37E-04,  avg # of iterations =  5.9

     Adding external electric field

     Computed dipole along edir(3) : 
        Dipole               -4.1016 Ry au,        -10.4252 Debye
        Dipole field         -0.0045 Ry au, 

        E field amplitude [Ha a.u.]: -8.0000E-03
        Potential amp.       -0.3165 Ry
        Total length         45.3534 bohr


     total cpu time spent up to now is      228.5 secs

     total energy              =    -239.24774448 Ry
     estimated scf accuracy    <       1.69608158 Ry

     iteration # 14     ecut=   100.00 Ry     beta= 0.70
     Davidson diagonalization with overlap
     ethr =  9.37E-04,  avg # of iterations =  3.7

     Adding external electric field

     Computed dipole along edir(3) : 
        Dipole               -4.2285 Ry au,        -10.7477 Debye
        Dipole field         -0.0047 Ry au, 

        E field amplitude [Ha a.u.]: -8.0000E-03
        Potential amp.       -0.3038 Ry
        Total length         45.3534 bohr


     total cpu time spent up to now is      239.4 secs

     total energy              =    -239.32793214 Ry
     estimated scf accuracy    <       0.04218743 Ry

     iteration # 15     ecut=   100.00 Ry     beta= 0.70
     Davidson diagonalization with overlap
     c_bands:  1 eigenvalues not converged
     c_bands:  1 eigenvalues not converged
     ethr =  4.02E-05,  avg # of iterations = 17.0

     Adding external electric field

     Computed dipole along edir(3) : 
        Dipole               -4.1123 Ry au,        -10.4525 Debye
        Dipole field         -0.0045 Ry au, 

        E field amplitude [Ha a.u.]: -8.0000E-03
        Potential amp.       -0.3154 Ry
        Total length         45.3534 bohr


     total cpu time spent up to now is      263.2 secs

     total energy              =    -239.31701920 Ry
     estimated scf accuracy    <       0.69030316 Ry

     iteration # 16     ecut=   100.00 Ry     beta= 0.70
     Davidson diagonalization with overlap
     c_bands:  1 eigenvalues not converged
     ethr =  4.02E-05,  avg # of iterations =  5.4

     Adding external electric field

     Computed dipole along edir(3) : 
        Dipole               -4.2387 Ry au,        -10.7738 Debye
        Dipole field         -0.0047 Ry au, 

        E field amplitude [Ha a.u.]: -8.0000E-03
        Potential amp.       -0.3028 Ry
        Total length         45.3534 bohr


     total cpu time spent up to now is      277.7 secs

     total energy              =    -239.35792753 Ry
     estimated scf accuracy    <       0.05775063 Ry

     iteration # 17     ecut=   100.00 Ry     beta= 0.70
     Davidson diagonalization with overlap
     ethr =  4.02E-05,  avg # of iterations =  3.1

     Adding external electric field

     Computed dipole along edir(3) : 
        Dipole               -4.2186 Ry au,        -10.7227 Debye
        Dipole field         -0.0046 Ry au, 

        E field amplitude [Ha a.u.]: -8.0000E-03
        Potential amp.       -0.3048 Ry
        Total length         45.3534 bohr


     total cpu time spent up to now is      289.9 secs

     total energy              =    -239.35885410 Ry
     estimated scf accuracy    <       0.07060558 Ry

     iteration # 18     ecut=   100.00 Ry     beta= 0.70
     Davidson diagonalization with overlap
     ethr =  4.02E-05,  avg # of iterations =  1.0

     Adding external electric field

     Computed dipole along edir(3) : 
        Dipole               -4.2642 Ry au,        -10.8386 Debye
        Dipole field         -0.0047 Ry au, 

        E field amplitude [Ha a.u.]: -8.0000E-03
        Potential amp.       -0.3002 Ry
        Total length         45.3534 bohr


     total cpu time spent up to now is      298.3 secs

     total energy              =    -239.35846265 Ry
     estimated scf accuracy    <       0.02457429 Ry

     iteration # 19     ecut=   100.00 Ry     beta= 0.70
     Davidson diagonalization with overlap
     ethr =  2.34E-05,  avg # of iterations =  1.3

     Adding external electric field

     Computed dipole along edir(3) : 
        Dipole               -4.2558 Ry au,        -10.8170 Debye
        Dipole field         -0.0047 Ry au, 

        E field amplitude [Ha a.u.]: -8.0000E-03
        Potential amp.       -0.3011 Ry
        Total length         45.3534 bohr


     total cpu time spent up to now is      307.1 secs

     total energy              =    -239.35876369 Ry
     estimated scf accuracy    <       0.00532926 Ry

     iteration # 20     ecut=   100.00 Ry     beta= 0.70
     Davidson diagonalization with overlap
     ethr =  5.08E-06,  avg # of iterations = 10.3

     Adding external electric field

     Computed dipole along edir(3) : 
        Dipole               -4.2357 Ry au,        -10.7662 Debye
        Dipole field         -0.0047 Ry au, 

        E field amplitude [Ha a.u.]: -8.0000E-03
        Potential amp.       -0.3031 Ry
        Total length         45.3534 bohr


     total cpu time spent up to now is      323.8 secs

     total energy              =    -239.35920762 Ry
     estimated scf accuracy    <       0.00140237 Ry

     iteration # 21     ecut=   100.00 Ry     beta= 0.70
     Davidson diagonalization with overlap
     ethr =  1.34E-06,  avg # of iterations =  5.4

     negative rho (up, down):  1.648E-04 0.000E+00

     Adding external electric field

     Computed dipole along edir(3) : 
        Dipole               -4.0105 Ry au,        -10.1938 Debye
        Dipole field         -0.0044 Ry au, 

        E field amplitude [Ha a.u.]: -8.0000E-03
        Potential amp.       -0.3255 Ry
        Total length         45.3534 bohr


     total cpu time spent up to now is      336.5 secs

     total energy              =    -239.35908361 Ry
     estimated scf accuracy    <       0.00082485 Ry

     iteration # 22     ecut=   100.00 Ry     beta= 0.70
     Davidson diagonalization with overlap
     ethr =  7.86E-07,  avg # of iterations =  4.0

     Adding external electric field

     Computed dipole along edir(3) : 
        Dipole               -4.0319 Ry au,        -10.2480 Debye
        Dipole field         -0.0044 Ry au, 

        E field amplitude [Ha a.u.]: -8.0000E-03
        Potential amp.       -0.3234 Ry
        Total length         45.3534 bohr


     total cpu time spent up to now is      348.4 secs

     total energy              =    -239.35903239 Ry
     estimated scf accuracy    <       0.00124221 Ry

     iteration # 23     ecut=   100.00 Ry     beta= 0.70
     Davidson diagonalization with overlap
     ethr =  7.86E-07,  avg # of iterations =  2.9

     Adding external electric field

     Computed dipole along edir(3) : 
        Dipole               -4.0266 Ry au,        -10.2347 Debye
        Dipole field         -0.0044 Ry au, 

        E field amplitude [Ha a.u.]: -8.0000E-03
        Potential amp.       -0.3239 Ry
        Total length         45.3534 bohr


     total cpu time spent up to now is      359.3 secs

     total energy              =    -239.35921990 Ry
     estimated scf accuracy    <       0.00102165 Ry

     iteration # 24     ecut=   100.00 Ry     beta= 0.70
     Davidson diagonalization with overlap
     ethr =  7.86E-07,  avg # of iterations =  1.9

     negative rho (up, down):  3.176E-08 0.000E+00

     Adding external electric field

     Computed dipole along edir(3) : 
        Dipole               -4.0110 Ry au,        -10.1950 Debye
        Dipole field         -0.0044 Ry au, 

        E field amplitude [Ha a.u.]: -8.0000E-03
        Potential amp.       -0.3255 Ry
        Total length         45.3534 bohr


     total cpu time spent up to now is      368.4 secs

     total energy              =    -239.35927705 Ry
     estimated scf accuracy    <       0.00036938 Ry

     iteration # 25     ecut=   100.00 Ry     beta= 0.70
     Davidson diagonalization with overlap
     ethr =  3.52E-07,  avg # of iterations =  1.0

     negative rho (up, down):  1.567E-05 0.000E+00

     Adding external electric field

     Computed dipole along edir(3) : 
        Dipole               -4.0026 Ry au,        -10.1736 Debye
        Dipole field         -0.0044 Ry au, 

        E field amplitude [Ha a.u.]: -8.0000E-03
        Potential amp.       -0.3263 Ry
        Total length         45.3534 bohr


     total cpu time spent up to now is      376.8 secs

     total energy              =    -239.35928127 Ry
     estimated scf accuracy    <       0.00009306 Ry

     iteration # 26     ecut=   100.00 Ry     beta= 0.70
     Davidson diagonalization with overlap
     ethr =  8.86E-08,  avg # of iterations =  4.0

     negative rho (up, down):  8.917E-06 0.000E+00

     Adding external electric field

     Computed dipole along edir(3) : 
        Dipole               -4.0018 Ry au,        -10.1715 Debye
        Dipole field         -0.0044 Ry au, 

        E field amplitude [Ha a.u.]: -8.0000E-03
        Potential amp.       -0.3264 Ry
        Total length         45.3534 bohr


     total cpu time spent up to now is      388.4 secs

     total energy              =    -239.35929989 Ry
     estimated scf accuracy    <       0.00003396 Ry

     iteration # 27     ecut=   100.00 Ry     beta= 0.70
     Davidson diagonalization with overlap
     ethr =  3.23E-08,  avg # of iterations =  2.0

     Adding external electric field

     Computed dipole along edir(3) : 
        Dipole               -4.0049 Ry au,        -10.1795 Debye
        Dipole field         -0.0044 Ry au, 

        E field amplitude [Ha a.u.]: -8.0000E-03
        Potential amp.       -0.3261 Ry
        Total length         45.3534 bohr


     total cpu time spent up to now is      397.6 secs

     total energy              =    -239.35929942 Ry
     estimated scf accuracy    <       0.00003456 Ry

     iteration # 28     ecut=   100.00 Ry     beta= 0.70
     Davidson diagonalization with overlap
     ethr =  3.23E-08,  avg # of iterations =  1.0

     Adding external electric field

     Computed dipole along edir(3) : 
        Dipole               -4.0046 Ry au,        -10.1788 Debye
        Dipole field         -0.0044 Ry au, 

        E field amplitude [Ha a.u.]: -8.0000E-03
        Potential amp.       -0.3261 Ry
        Total length         45.3534 bohr


     total cpu time spent up to now is      406.1 secs

     total energy              =    -239.35930047 Ry
     estimated scf accuracy    <       0.00000665 Ry

     iteration # 29     ecut=   100.00 Ry     beta= 0.70
     Davidson diagonalization with overlap
     ethr =  6.34E-09,  avg # of iterations =  2.0

     Adding external electric field

     Computed dipole along edir(3) : 
        Dipole               -4.0052 Ry au,        -10.1802 Debye
        Dipole field         -0.0044 Ry au, 

        E field amplitude [Ha a.u.]: -8.0000E-03
        Potential amp.       -0.3261 Ry
        Total length         45.3534 bohr


     total cpu time spent up to now is      415.4 secs

     total energy              =    -239.35930082 Ry
     estimated scf accuracy    <       0.00000191 Ry

     iteration # 30     ecut=   100.00 Ry     beta= 0.70
     Davidson diagonalization with overlap
     ethr =  1.82E-09,  avg # of iterations =  4.1

     Adding external electric field

     Computed dipole along edir(3) : 
        Dipole               -4.0048 Ry au,        -10.1791 Debye
        Dipole field         -0.0044 Ry au, 

        E field amplitude [Ha a.u.]: -8.0000E-03
        Potential amp.       -0.3261 Ry
        Total length         45.3534 bohr


     total cpu time spent up to now is      426.8 secs

     total energy              =    -239.35930099 Ry
     estimated scf accuracy    <       0.00000041 Ry

     iteration # 31     ecut=   100.00 Ry     beta= 0.70
     Davidson diagonalization with overlap
     ethr =  3.92E-10,  avg # of iterations =  4.0

     Adding external electric field

     Computed dipole along edir(3) : 
        Dipole               -4.0048 Ry au,        -10.1792 Debye
        Dipole field         -0.0044 Ry au, 

        E field amplitude [Ha a.u.]: -8.0000E-03
        Potential amp.       -0.3261 Ry
        Total length         45.3534 bohr


     total cpu time spent up to now is      438.0 secs

     total energy              =    -239.35930112 Ry
     estimated scf accuracy    <       0.00000022 Ry

     iteration # 32     ecut=   100.00 Ry     beta= 0.70
     Davidson diagonalization with overlap
     ethr =  2.13E-10,  avg # of iterations =  2.0

     Adding external electric field

     Computed dipole along edir(3) : 
        Dipole               -4.0044 Ry au,        -10.1782 Debye
        Dipole field         -0.0044 Ry au, 

        E field amplitude [Ha a.u.]: -8.0000E-03
        Potential amp.       -0.3262 Ry
        Total length         45.3534 bohr


     total cpu time spent up to now is      447.3 secs

     total energy              =    -239.35930115 Ry
     estimated scf accuracy    <       0.00000039 Ry

     iteration # 33     ecut=   100.00 Ry     beta= 0.70
     Davidson diagonalization with overlap
     ethr =  2.13E-10,  avg # of iterations =  1.9

     Adding external electric field

     Computed dipole along edir(3) : 
        Dipole               -4.0046 Ry au,        -10.1786 Debye
        Dipole field         -0.0044 Ry au, 

        E field amplitude [Ha a.u.]: -8.0000E-03
        Potential amp.       -0.3261 Ry
        Total length         45.3534 bohr


     total cpu time spent up to now is      456.3 secs

     total energy              =    -239.35930115 Ry
     estimated scf accuracy    <       0.00000009 Ry

     iteration # 34     ecut=   100.00 Ry     beta= 0.70
     Davidson diagonalization with overlap
     ethr =  8.57E-11,  avg # of iterations =  2.0

     Adding external electric field

     Computed dipole along edir(3) : 
        Dipole               -4.0045 Ry au,        -10.1785 Debye
        Dipole field         -0.0044 Ry au, 

        E field amplitude [Ha a.u.]: -8.0000E-03
        Potential amp.       -0.3261 Ry
        Total length         45.3534 bohr


     total cpu time spent up to now is      465.4 secs

     total energy              =    -239.35930116 Ry
     estimated scf accuracy    <       0.00000003 Ry

     iteration # 35     ecut=   100.00 Ry     beta= 0.70
     Davidson diagonalization with overlap
     ethr =  2.64E-11,  avg # of iterations =  2.0

     Adding external electric field

     Computed dipole along edir(3) : 
        Dipole               -4.0044 Ry au,        -10.1783 Debye
        Dipole field         -0.0044 Ry au, 

        E field amplitude [Ha a.u.]: -8.0000E-03
        Potential amp.       -0.3262 Ry
        Total length         45.3534 bohr


     total cpu time spent up to now is      474.7 secs

     total energy              =    -239.35930116 Ry
     estimated scf accuracy    <          7.8E-09 Ry

     iteration # 36     ecut=   100.00 Ry     beta= 0.70
     Davidson diagonalization with overlap
     ethr =  7.44E-12,  avg # of iterations =  4.1

     Adding external electric field

     Computed dipole along edir(3) : 
        Dipole               -4.0044 Ry au,        -10.1782 Debye
        Dipole field         -0.0044 Ry au, 

        E field amplitude [Ha a.u.]: -8.0000E-03
        Potential amp.       -0.3262 Ry
        Total length         45.3534 bohr


     total cpu time spent up to now is      486.9 secs

     total energy              =    -239.35930116 Ry
     estimated scf accuracy    <       0.00000004 Ry

     iteration # 37     ecut=   100.00 Ry     beta= 0.70
     Davidson diagonalization with overlap
     ethr =  7.44E-12,  avg # of iterations =  2.0

     Adding external electric field

     Computed dipole along edir(3) : 
        Dipole               -4.0044 Ry au,        -10.1782 Debye
        Dipole field         -0.0044 Ry au, 

        E field amplitude [Ha a.u.]: -8.0000E-03
        Potential amp.       -0.3262 Ry
        Total length         45.3534 bohr


     total cpu time spent up to now is      496.4 secs

     total energy              =    -239.35930117 Ry
     estimated scf accuracy    <          2.6E-09 Ry

     iteration # 38     ecut=   100.00 Ry     beta= 0.70
     Davidson diagonalization with overlap
     ethr =  2.45E-12,  avg # of iterations =  2.2

     Adding external electric field

     Computed dipole along edir(3) : 
        Dipole               -4.0046 Ry au,        -10.1786 Debye
        Dipole field         -0.0044 Ry au, 

        E field amplitude [Ha a.u.]: -8.0000E-03
        Potential amp.       -0.3261 Ry
        Total length         45.3534 bohr


     total cpu time spent up to now is      505.9 secs

     End of self-consistent calculation

          k = 0.0417 0.0722 0.0000 (192948 PWs)   bands (ev):

   -53.4954 -25.4199 -25.4106 -25.4103 -10.2689  -9.2421  -8.8903  -8.6411
    -7.8712  -7.6249  -7.5929  -6.2350  -6.1728  -5.9893  -5.4413  -5.3943
    -5.1707  -4.8365  -4.5963  -4.5961  -4.4455  -4.1134  -4.1134  -4.0438
    -3.8896  -3.8371  -3.7998  -3.6170  -3.6161  -3.5662  -3.1582  -3.1575
    -2.9778  -2.9467  -2.8581  -2.2308  -2.0782  -2.0725  -1.6832  -1.4824
    -1.4414  -1.3313  -1.3241  -1.1601  -0.9876  -0.5727  -0.2540  -0.1382
     0.0011   0.0490   0.2528   0.2677   0.4356   0.4612   0.7497   0.7526
     0.8761   0.9386   0.9791   0.9993   1.2020   1.2231   1.5623   1.5984

          k = 0.0417 0.2165 0.0000 (192942 PWs)   bands (ev):

   -53.4954 -25.4199 -25.4106 -25.4103 -10.2059  -9.1795  -8.8279  -8.5788
    -7.8092  -7.5630  -7.5308  -6.8472  -6.1736  -5.9280  -5.8402  -5.5026
    -5.3323  -5.2597  -4.6534  -4.5359  -4.5086  -4.2700  -4.2247  -4.0532
    -3.9824  -3.7391  -3.6660  -3.5563  -3.3420  -3.1195  -3.0983  -2.9452
    -2.9130  -2.7726  -2.2616  -2.1210  -2.0922  -2.0777  -2.0169  -1.6215
    -1.3874  -1.3433  -1.2666  -0.9007  -0.7303  -0.6921  -0.4863  -0.3172
    -0.2849  -0.1819  -0.0201   0.1571   0.3143   0.5344   0.8043   0.8897
     1.0131   1.2579   1.3166   1.3771   1.4842   1.5968   1.6569   1.7322

          k = 0.0417 0.3608 0.0000 (192862 PWs)   bands (ev):

   -53.4954 -25.4199 -25.4106 -25.4103 -10.0801  -9.0543  -8.7033  -8.4544
    -7.6853  -7.4633  -7.4393  -7.4065  -6.4523  -6.1120  -6.0506  -5.8678
    -5.8053  -5.2089  -5.1111  -4.8704  -4.8282  -4.4152  -3.9330  -3.8615
    -3.8114  -3.6182  -3.5176  -3.4367  -3.2863  -2.9795  -2.8398  -2.7987
    -2.6572  -2.5222  -2.3086  -1.9210  -1.9005  -1.6238  -1.5507  -1.5033
    -1.4734  -1.3936  -1.2708  -1.1482  -0.9097  -0.8796  -0.8502  -0.4438
    -0.3490  -0.0656   0.1861   0.4040   0.4213   0.4712   0.9028   1.0148
     1.1372   1.2557   1.3611   1.3845   1.5471   1.5564   1.7649   1.9716

          k = 0.0417 0.5052 0.0000 (192883 PWs)   bands (ev):

   -53.4954 -25.4199 -25.4106 -25.4103  -9.8916  -8.8668  -8.5166  -8.2680
    -8.0199  -7.4996  -7.2540  -7.2205  -7.0055  -6.6630  -6.4178  -5.8668
    -5.6580  -5.6219  -5.4156  -5.3757  -5.0225  -4.2345  -4.0489  -3.8106
    -3.7529  -3.6789  -3.4368  -3.2580  -3.1946  -2.9200  -2.8017  -2.6192
    -2.4446  -2.0021  -1.9945  -1.9379  -1.8850  -1.7264  -1.5271  -1.4163
    -1.3302  -1.2821  -1.1028  -1.0907  -0.9718  -0.8550  -0.4758  -0.3506
    -0.2808   0.0754   0.1071   0.5137   0.5678   0.7268   1.0214   1.0596
     1.0634   1.2753   1.2955   1.5274   1.7046   1.9405   2.0932   2.3714

          k = 0.0417 0.6495 0.0000 (192942 PWs)   bands (ev):

   -53.4954 -25.4199 -25.4107 -25.4103  -9.6406  -8.6172  -8.5166  -8.2680
    -8.0199  -7.4995  -7.2525  -7.1549  -7.0072  -6.9728  -6.9086  -6.1463
    -5.9030  -5.8648  -5.6217  -5.3774  -4.7765  -4.5282  -4.2873  -3.9940
    -3.6777  -3.5134  -3.4369  -3.1961  -3.0202  -2.9200  -2.5655  -2.4446
    -2.4006  -2.3664  -2.1581  -2.0017  -1.9377  -1.5272  -1.4966  -1.3257
    -1.1016  -1.0884  -0.8613  -0.7409  -0.6608  -0.4894  -0.3503   0.0552
     0.0801   0.1911   0.3458   0.5153   0.6619   0.6788   0.9575   1.0594
     1.3274   1.5167   1.6505   1.7134   1.9614   2.0894   2.0930   2.1931

          k = 0.0417 0.7939 0.0000 (192966 PWs)   bands (ev):

   -53.4954 -25.4199 -25.4107 -25.4103  -9.3275  -8.9527  -8.3058  -7.9579
    -7.9330  -7.7103  -7.5867  -7.3398  -6.9442  -6.6996  -6.6641  -6.5751
    -6.3311  -6.2942  -5.3168  -5.0733  -4.9518  -4.7094  -4.4691  -4.1014
    -3.6942  -3.3357  -3.2147  -3.1388  -2.8999  -2.8576  -2.7831  -2.7241
    -2.5479  -2.3726  -2.2716  -2.0883  -1.9228  -1.7310  -1.2162  -1.0022
    -0.9042  -0.8083  -0.5816  -0.4790  -0.4682  -0.2789  -0.1623   0.0187
     0.0247   0.4286   0.5932   0.6381   0.6943   0.9922   1.3281   1.3881
     1.4408   1.5620   1.5885   1.6143   1.8697   1.9234   1.9801   2.1589

          k = 0.0417-0.7939 0.0000 (192966 PWs)   bands (ev):

   -53.4954 -25.4199 -25.4107 -25.4103  -9.3275  -8.9527  -8.3058  -7.9579
    -7.9330  -7.7103  -7.5867  -7.3398  -6.9442  -6.6996  -6.6641  -6.5751
    -6.3311  -6.2942  -5.3168  -5.0733  -4.9518  -4.7094  -4.4691  -4.1014
    -3.6942  -3.3357  -3.2147  -3.1388  -2.8999  -2.8576  -2.7831  -2.7241
    -2.5479  -2.3726  -2.2716  -2.0883  -1.9228  -1.7310  -1.2162  -1.0022
    -0.9042  -0.8083  -0.5816  -0.4790  -0.4682  -0.2789  -0.1623   0.0187
     0.0247   0.4286   0.5932   0.6381   0.6943   0.9922   1.3281   1.3881
     1.4408   1.5620   1.5885   1.6143   1.8697   1.9234   1.9801   2.1589

          k = 0.0417-0.6495 0.0000 (192942 PWs)   bands (ev):

   -53.4954 -25.4199 -25.4107 -25.4103  -9.6406  -8.6172  -8.5166  -8.2680
    -8.0199  -7.4995  -7.2525  -7.1549  -7.0072  -6.9728  -6.9086  -6.1463
    -5.9030  -5.8648  -5.6217  -5.3774  -4.7765  -4.5282  -4.2873  -3.9940
    -3.6777  -3.5134  -3.4369  -3.1961  -3.0202  -2.9200  -2.5655  -2.4446
    -2.4006  -2.3664  -2.1581  -2.0017  -1.9377  -1.5272  -1.4966  -1.3257
    -1.1016  -1.0884  -0.8613  -0.7409  -0.6608  -0.4894  -0.3503   0.0552
     0.0801   0.1911   0.3458   0.5153   0.6619   0.6788   0.9575   1.0594
     1.3274   1.5167   1.6505   1.7134   1.9614   2.0894   2.0930   2.1931

          k = 0.0417-0.5052 0.0000 (192883 PWs)   bands (ev):

   -53.4954 -25.4199 -25.4106 -25.4103  -9.8916  -8.8668  -8.5166  -8.2680
    -8.0199  -7.4996  -7.2540  -7.2205  -7.0055  -6.6630  -6.4178  -5.8668
    -5.6580  -5.6219  -5.4156  -5.3757  -5.0225  -4.2345  -4.0489  -3.8106
    -3.7529  -3.6789  -3.4368  -3.2580  -3.1946  -2.9200  -2.8017  -2.6192
    -2.4446  -2.0021  -1.9945  -1.9379  -1.8850  -1.7264  -1.5271  -1.4163
    -1.3302  -1.2821  -1.1028  -1.0907  -0.9718  -0.8550  -0.4758  -0.3506
    -0.2808   0.0754   0.1071   0.5137   0.5678   0.7268   1.0214   1.0596
     1.0634   1.2753   1.2955   1.5274   1.7046   1.9405   2.0932   2.3714

          k = 0.0417-0.3608 0.0000 (192862 PWs)   bands (ev):

   -53.4954 -25.4199 -25.4106 -25.4103 -10.0801  -9.0543  -8.7033  -8.4544
    -7.6853  -7.4633  -7.4393  -7.4065  -6.4523  -6.1120  -6.0506  -5.8678
    -5.8053  -5.2089  -5.1111  -4.8704  -4.8282  -4.4152  -3.9330  -3.8615
    -3.8114  -3.6182  -3.5176  -3.4367  -3.2863  -2.9795  -2.8398  -2.7987
    -2.6572  -2.5222  -2.3086  -1.9210  -1.9005  -1.6238  -1.5507  -1.5033
    -1.4734  -1.3936  -1.2708  -1.1482  -0.9097  -0.8796  -0.8502  -0.4438
    -0.3490  -0.0656   0.1861   0.4040   0.4213   0.4712   0.9028   1.0148
     1.1372   1.2557   1.3611   1.3845   1.5471   1.5564   1.7649   1.9716

          k = 0.0417-0.2165 0.0000 (192942 PWs)   bands (ev):

   -53.4954 -25.4199 -25.4106 -25.4103 -10.2059  -9.1795  -8.8279  -8.5788
    -7.8092  -7.5630  -7.5308  -6.8472  -6.1736  -5.9280  -5.8402  -5.5026
    -5.3323  -5.2597  -4.6534  -4.5359  -4.5086  -4.2700  -4.2247  -4.0532
    -3.9824  -3.7391  -3.6660  -3.5563  -3.3420  -3.1195  -3.0983  -2.9452
    -2.9130  -2.7726  -2.2616  -2.1210  -2.0922  -2.0777  -2.0169  -1.6215
    -1.3874  -1.3433  -1.2666  -0.9007  -0.7303  -0.6921  -0.4863  -0.3172
    -0.2849  -0.1819  -0.0201   0.1571   0.3143   0.5344   0.8043   0.8897
     1.0131   1.2579   1.3166   1.3771   1.4842   1.5968   1.6569   1.7322

          k = 0.0417-0.0722 0.0000 (192948 PWs)   bands (ev):

   -53.4954 -25.4199 -25.4106 -25.4103 -10.2689  -9.2421  -8.8903  -8.6411
    -7.8712  -7.6249  -7.5929  -6.2350  -6.1728  -5.9893  -5.4413  -5.3943
    -5.1707  -4.8365  -4.5963  -4.5961  -4.4455  -4.1134  -4.1134  -4.0438
    -3.8896  -3.8371  -3.7998  -3.6170  -3.6161  -3.5662  -3.1582  -3.1575
    -2.9778  -2.9467  -2.8581  -2.2308  -2.0782  -2.0725  -1.6832  -1.4824
    -1.4414  -1.3313  -1.3241  -1.1601  -0.9876  -0.5727  -0.2540  -0.1382
     0.0011   0.0490   0.2528   0.2677   0.4356   0.4612   0.7497   0.7526
     0.8761   0.9386   0.9791   0.9993   1.2020   1.2231   1.5623   1.5984

          k = 0.1250 0.0722 0.0000 (192973 PWs)   bands (ev):

   -53.4954 -25.4199 -25.4106 -25.4103 -10.2479  -9.2212  -9.1191  -8.3716
    -8.0986  -7.5743  -7.3550  -6.4604  -6.1525  -5.7243  -5.4211  -5.3734
    -5.1506  -5.0584  -5.0574  -4.4257  -4.3622  -4.3059  -4.2666  -4.0724
    -4.0687  -3.6168  -3.6155  -3.5534  -3.5341  -3.3830  -3.3451  -2.9574
    -2.8407  -2.7769  -2.7755  -2.3450  -2.3387  -1.9807  -1.8926  -1.4749
    -1.3890  -1.2322  -1.1944  -0.9491  -0.9400  -0.7351  -0.3835  -0.2482
    -0.1395  -0.1299  -0.0270   0.3866   0.4260   0.5504   0.6222   0.8020
     0.9107   1.1484   1.1824   1.2305   1.2371   1.2866   1.5516   1.6972

          k = 0.1250 0.2165 0.0000 (192926 PWs)   bands (ev):

   -53.4954 -25.4199 -25.4106 -25.4103 -10.1850  -9.1586  -9.0566  -8.3095
    -8.0365  -7.5122  -7.2932  -6.8267  -6.3988  -5.8202  -5.7256  -5.6630
    -5.3114  -4.9974  -4.9972  -4.7289  -4.6334  -4.2139  -4.1976  -4.0106
    -4.0103  -3.6470  -3.5562  -3.5559  -3.4785  -3.1632  -2.8971  -2.8424
    -2.7181  -2.7174  -2.2832  -2.2820  -2.1128  -2.0638  -1.8824  -1.8322
    -1.7755  -1.1388  -0.8902  -0.8827  -0.8400  -0.8053  -0.4573  -0.1964
    -0.1168  -0.0839  -0.0770   0.0922   0.1762   0.5583   0.5766   0.8605
     1.2215   1.2545   1.2759   1.3344   1.3921   1.4265   1.6096   1.7516

          k = 0.1250 0.3608 0.0000 (192891 PWs)   bands (ev):

   -53.4954 -25.4199 -25.4106 -25.4103 -10.0592  -9.0335  -8.9318  -8.1853
    -7.9124  -7.4427  -7.3879  -7.1698  -6.4319  -6.3362  -6.2756  -5.6039
    -5.5408  -5.3338  -5.1875  -4.8762  -4.8095  -4.6077  -4.0837  -3.8904
    -3.7918  -3.7325  -3.4364  -3.3585  -3.0452  -2.8221  -2.7795  -2.7230
    -2.6380  -2.6005  -2.3651  -2.1635  -2.1076  -1.7656  -1.7166  -1.5692
    -1.5579  -1.1413  -1.0236  -0.9582  -0.8020  -0.7680  -0.6924  -0.3339
    -0.0692  -0.0512  -0.0011   0.0308   0.2298   0.6345   0.8376   0.9838
     1.1753   1.3291   1.3608   1.4364   1.5171   1.7204   1.8815   2.0587

          k = 0.1250 0.5052 0.0000 (192912 PWs)   bands (ev):

   -53.4954 -25.4199 -25.4106 -25.4103  -9.8707  -8.8460  -8.7448  -7.9998
    -7.9987  -7.7264  -7.2020  -6.9870  -6.9828  -6.8882  -6.1526  -6.0915
    -5.8813  -5.3637  -5.3513  -5.1511  -5.0016  -4.6947  -4.2683  -3.9007
    -3.7108  -3.5542  -3.2569  -3.1897  -3.1632  -2.9315  -2.8645  -2.5998
    -2.4254  -2.1619  -1.9871  -1.9838  -1.9316  -1.9198  -1.5391  -1.4857
    -1.3894  -1.0742  -0.8697  -0.8247  -0.8130  -0.6223  -0.5938  -0.2898
    -0.0895  -0.0638   0.1128   0.1857   0.3519   0.7987   1.0133   1.1413
     1.3468   1.4436   1.5295   1.5765   1.6551   1.8930   2.0490   2.2403

          k = 0.1250 0.6495 0.0000 (192967 PWs)   bands (ev):

   -53.4954 -25.4199 -25.4107 -25.4103  -9.6197  -8.5965  -8.4963  -8.4954
    -7.7516  -7.4813  -7.4765  -7.3808  -6.9542  -6.7386  -6.6425  -6.3707
    -5.8518  -5.8402  -5.6370  -5.1140  -4.7612  -4.7441  -4.4531  -4.0277
    -3.6706  -3.6443  -3.4720  -3.3736  -3.0181  -2.9389  -2.5936  -2.4121
    -2.3625  -2.1927  -1.9864  -1.9299  -1.9174  -1.7502  -1.3285  -1.2810
    -1.2550  -1.0094  -0.8395  -0.6150  -0.5900  -0.4158  -0.3668   0.0337
     0.1523   0.3081   0.3267   0.3715   0.5812   0.9042   1.1286   1.2006
     1.3019   1.4140   1.7184   1.7437   1.7515   1.8596   2.0682   2.2710

          k = 0.1250 0.7939 0.0000 (192964 PWs)   bands (ev):

   -53.4954 -25.4199 -25.4107 -25.4103  -9.3067  -8.9319  -8.2851  -8.1852
    -7.9124  -7.8134  -7.4426  -7.1701  -7.0728  -6.8006  -6.6453  -6.4316
    -6.2755  -6.0641  -5.5403  -5.1745  -4.8106  -4.4565  -4.4399  -4.1520
    -4.0810  -3.7918  -3.3578  -3.1748  -2.9994  -2.8200  -2.7206  -2.6445
    -2.3654  -2.2986  -2.0683  -1.9044  -1.7118  -1.5662  -1.4608  -1.1415
    -1.0158  -0.9582  -0.6751  -0.3407  -0.1340  -0.1089  -0.0578   0.0036
     0.2280   0.3272   0.5650   0.6407   0.8238   1.0106   1.1770   1.1964
     1.3432   1.4211   1.4806   1.7776   1.8819   2.0040   2.1320   2.2783

          k = 0.1250-0.7939 0.0000 (192964 PWs)   bands (ev):

   -53.4954 -25.4199 -25.4107 -25.4103  -9.3067  -8.9319  -8.2851  -8.1852
    -7.9124  -7.8134  -7.4426  -7.1701  -7.0728  -6.8006  -6.6453  -6.4316
    -6.2755  -6.0641  -5.5403  -5.1745  -4.8106  -4.4565  -4.4399  -4.1520
    -4.0810  -3.7918  -3.3578  -3.1748  -2.9994  -2.8200  -2.7206  -2.6445
    -2.3654  -2.2986  -2.0683  -1.9044  -1.7118  -1.5662  -1.4608  -1.1415
    -1.0158  -0.9582  -0.6751  -0.3407  -0.1340  -0.1089  -0.0578   0.0036
     0.2280   0.3272   0.5650   0.6407   0.8238   1.0106   1.1770   1.1964
     1.3432   1.4211   1.4806   1.7776   1.8819   2.0040   2.1320   2.2783

          k = 0.1250-0.6495 0.0000 (192967 PWs)   bands (ev):

   -53.4954 -25.4199 -25.4107 -25.4103  -9.6197  -8.5965  -8.4963  -8.4954
    -7.7516  -7.4813  -7.4765  -7.3808  -6.9542  -6.7386  -6.6425  -6.3707
    -5.8518  -5.8402  -5.6370  -5.1140  -4.7612  -4.7441  -4.4531  -4.0277
    -3.6706  -3.6443  -3.4720  -3.3736  -3.0181  -2.9389  -2.5936  -2.4121
    -2.3625  -2.1927  -1.9864  -1.9299  -1.9174  -1.7502  -1.3285  -1.2810
    -1.2550  -1.0094  -0.8395  -0.6150  -0.5900  -0.4158  -0.3668   0.0337
     0.1523   0.3081   0.3267   0.3715   0.5812   0.9042   1.1286   1.2006
     1.3019   1.4140   1.7184   1.7437   1.7515   1.8596   2.0682   2.2710

          k = 0.1250-0.5052 0.0000 (192912 PWs)   bands (ev):

   -53.4954 -25.4199 -25.4106 -25.4103  -9.8707  -8.8460  -8.7448  -7.9998
    -7.9987  -7.7264  -7.2020  -6.9870  -6.9828  -6.8882  -6.1526  -6.0915
    -5.8813  -5.3637  -5.3513  -5.1511  -5.0016  -4.6947  -4.2683  -3.9007
    -3.7108  -3.5542  -3.2569  -3.1897  -3.1632  -2.9315  -2.8645  -2.5998
    -2.4254  -2.1619  -1.9871  -1.9838  -1.9316  -1.9198  -1.5391  -1.4857
    -1.3894  -1.0742  -0.8697  -0.8247  -0.8130  -0.6223  -0.5938  -0.2898
    -0.0895  -0.0638   0.1128   0.1857   0.3519   0.7987   1.0133   1.1413
     1.3468   1.4436   1.5295   1.5765   1.6551   1.8930   2.0490   2.2403

          k = 0.1250-0.3608 0.0000 (192891 PWs)   bands (ev):

   -53.4954 -25.4199 -25.4106 -25.4103 -10.0592  -9.0335  -8.9318  -8.1853
    -7.9124  -7.4427  -7.3879  -7.1698  -6.4319  -6.3362  -6.2756  -5.6039
    -5.5408  -5.3338  -5.1875  -4.8762  -4.8095  -4.6077  -4.0837  -3.8904
    -3.7918  -3.7325  -3.4364  -3.3585  -3.0452  -2.8221  -2.7795  -2.7230
    -2.6380  -2.6005  -2.3651  -2.1635  -2.1076  -1.7656  -1.7166  -1.5692
    -1.5579  -1.1413  -1.0236  -0.9582  -0.8020  -0.7680  -0.6924  -0.3339
    -0.0692  -0.0512  -0.0011   0.0308   0.2298   0.6345   0.8376   0.9838
     1.1753   1.3291   1.3608   1.4364   1.5171   1.7204   1.8815   2.0587

          k = 0.1250-0.2165 0.0000 (192926 PWs)   bands (ev):

   -53.4954 -25.4199 -25.4106 -25.4103 -10.1850  -9.1586  -9.0566  -8.3095
    -8.0365  -7.5122  -7.2932  -6.8267  -6.3988  -5.8202  -5.7256  -5.6630
    -5.3114  -4.9974  -4.9972  -4.7289  -4.6334  -4.2139  -4.1976  -4.0106
    -4.0103  -3.6470  -3.5562  -3.5559  -3.4785  -3.1632  -2.8971  -2.8424
    -2.7181  -2.7174  -2.2832  -2.2820  -2.1128  -2.0638  -1.8824  -1.8322
    -1.7755  -1.1388  -0.8902  -0.8827  -0.8400  -0.8053  -0.4573  -0.1964
    -0.1168  -0.0839  -0.0770   0.0922   0.1762   0.5583   0.5766   0.8605
     1.2215   1.2545   1.2759   1.3344   1.3921   1.4265   1.6096   1.7516

          k = 0.1250-0.0722 0.0000 (192973 PWs)   bands (ev):

   -53.4954 -25.4199 -25.4106 -25.4103 -10.2479  -9.2212  -9.1191  -8.3716
    -8.0986  -7.5743  -7.3550  -6.4604  -6.1525  -5.7243  -5.4211  -5.3734
    -5.1506  -5.0584  -5.0574  -4.4257  -4.3622  -4.3059  -4.2666  -4.0724
    -4.0687  -3.6168  -3.6155  -3.5534  -3.5341  -3.3830  -3.3451  -2.9574
    -2.8407  -2.7769  -2.7755  -2.3450  -2.3387  -1.9807  -1.8926  -1.4749
    -1.3890  -1.2322  -1.1944  -0.9491  -0.9400  -0.7351  -0.3835  -0.2482
    -0.1395  -0.1299  -0.0270   0.3866   0.4260   0.5504   0.6222   0.8020
     0.9107   1.1484   1.1824   1.2305   1.2371   1.2866   1.5516   1.6972

          k = 0.2083 0.0722 0.0000 (192934 PWs)   bands (ev):

   -53.4954 -25.4199 -25.4106 -25.4103 -10.2059  -9.3275  -9.1794  -8.3058
    -8.0819  -7.5328  -7.0672  -6.6658  -6.1118  -5.5027  -5.4415  -5.3805
    -5.3302  -5.2597  -5.1101  -4.5360  -4.5108  -4.4675  -4.3852  -4.2686
    -4.0532  -3.5566  -3.5097  -3.3421  -3.2620  -3.1194  -3.0980  -2.9455
    -2.9124  -2.8047  -2.7723  -2.2611  -2.0977  -2.0817  -2.0152  -1.6014
    -1.4769  -1.2717  -0.9350  -0.8647  -0.7618  -0.7280  -0.6908  -0.3196
    -0.2872  -0.2502  -0.1770   0.2244   0.3159   0.6380   0.7569   0.8028
     0.9751   0.9897   1.0665   1.4437   1.4894   1.5752   1.6059   1.7370

          k = 0.2083 0.2165 0.0000 (192892 PWs)   bands (ev):

   -53.4954 -25.4199 -25.4106 -25.4103 -10.1430  -9.2650  -9.1168  -8.2436
    -8.0199  -7.4707  -7.0055  -6.7858  -6.6041  -5.9288  -5.7794  -5.4418
    -5.3803  -5.2682  -4.9299  -4.7156  -4.5933  -4.4504  -4.4061  -4.1658
    -3.7707  -3.7159  -3.6078  -3.3461  -3.2017  -3.0601  -2.8858  -2.8529
    -2.8283  -2.5817  -2.2336  -2.1155  -2.0638  -2.0433  -2.0300  -2.0110
    -1.6813  -1.2108  -1.0442  -0.9158  -0.8681  -0.6330  -0.2556  -0.1580
    -0.1269  -0.0787   0.1286   0.1569   0.2521   0.4149   0.5154   0.6974
     1.0207   1.0384   1.0804   1.2097   1.4070   1.5189   1.6601   1.7800

          k = 0.2083 0.3608 0.0000 (192925 PWs)   bands (ev):

   -53.4954 -25.4199 -25.4106 -25.4103 -10.0173  -9.1400  -8.9917  -8.1193
    -7.8960  -7.4016  -7.3464  -6.8824  -6.5405  -6.4809  -6.3908  -5.5362
    -5.3204  -5.3201  -5.2583  -5.1445  -4.7692  -4.3299  -4.3273  -4.2836
    -3.9296  -3.7525  -3.0827  -2.9425  -2.9410  -2.8229  -2.7731  -2.7625
    -2.7573  -2.7311  -2.5995  -2.0041  -1.9219  -1.9130  -1.9013  -1.8915
    -1.5316  -1.1968  -0.7622  -0.5951  -0.5250  -0.5159  -0.4929  -0.3079
    -0.1506  -0.1334  -0.1289  -0.0014   0.3754   0.6086   0.7911   0.8230
     0.9483   1.1532   1.4302   1.6148   1.7396   1.7542   1.7786   1.8765

          k = 0.2083 0.5052 0.0000 (192924 PWs)   bands (ev):

   -53.4954 -25.4199 -25.4106 -25.4103  -9.8288  -8.9527  -8.8043  -7.9580
    -7.9330  -7.7103  -7.1606  -7.0933  -6.9439  -6.6978  -6.2962  -6.0849
    -5.8677  -5.3167  -5.1381  -5.0755  -4.9590  -4.8683  -4.4685  -4.1490
    -4.1004  -3.3357  -3.2817  -3.1357  -2.9016  -2.8576  -2.7641  -2.5898
    -2.5556  -2.3747  -2.3322  -2.0724  -1.9229  -1.7426  -1.7267  -1.3171
    -1.0022  -0.9046  -0.8410  -0.8079  -0.6689  -0.5771  -0.3515  -0.1668
     0.0036   0.0240   0.0341   0.1719   0.3397   0.6283   0.9793   1.2427
     1.3299   1.4520   1.6041   1.7630   1.7996   1.8160   1.8854   2.0033

          k = 0.2083 0.6495 0.0000 (192946 PWs)   bands (ev):

   -53.4954 -25.4199 -25.4107 -25.4103  -9.5780  -8.7034  -8.5548  -8.4545
    -7.6852  -7.5867  -7.4632  -7.4375  -6.9129  -6.5752  -6.4522  -6.3565
    -6.0505  -5.8050  -5.3533  -4.9522  -4.8956  -4.8324  -4.7124  -3.9089
    -3.8583  -3.8114  -3.7502  -3.6143  -2.8401  -2.7844  -2.6649  -2.5278
    -2.3540  -2.3189  -1.9209  -1.7060  -1.5101  -1.4935  -1.4735  -1.3938
    -1.2630  -0.9904  -0.8814  -0.5095  -0.4430  -0.3551  -0.1405   0.0056
     0.1933   0.2103   0.3967   0.4713   0.7965   1.1391   1.1881   1.2248
     1.3568   1.3994   1.5437   1.5512   1.5544   1.9313   2.0385   2.0692

          k = 0.2083 0.7939 0.0000 (192995 PWs)   bands (ev):

   -53.4954 -25.4199 -25.4107 -25.4103  -9.2650  -8.8903  -8.3923  -8.2435
    -8.0199  -7.8709  -7.3759  -7.1548  -7.0057  -6.7858  -6.6042  -6.2346
    -6.1457  -5.7793  -5.7439  -5.3773  -4.5933  -4.5302  -4.4065  -4.2316
    -4.1680  -4.0390  -3.6097  -3.5554  -3.2523  -3.1951  -2.3743  -2.2335
    -2.0656  -2.0451  -2.0130  -1.8826  -1.7258  -1.6701  -1.2172  -1.2008
    -0.9410  -0.8723  -0.8558  -0.1494  -0.0942  -0.0806  -0.0446   0.2507
     0.3964   0.4920   0.5149   0.6706   0.9840   1.0274   1.0310   1.0887
     1.1999   1.3793   1.4279   1.8445   1.8765   1.9457   1.9893   2.1508

          k = 0.2083-0.7939 0.0000 (192995 PWs)   bands (ev):

   -53.4954 -25.4199 -25.4107 -25.4103  -9.2650  -8.8903  -8.3923  -8.2435
    -8.0199  -7.8709  -7.3759  -7.1548  -7.0057  -6.7858  -6.6042  -6.2346
    -6.1457  -5.7793  -5.7439  -5.3773  -4.5933  -4.5302  -4.4065  -4.2316
    -4.1680  -4.0390  -3.6097  -3.5554  -3.2523  -3.1951  -2.3743  -2.2335
    -2.0656  -2.0451  -2.0130  -1.8826  -1.7258  -1.6701  -1.2172  -1.2008
    -0.9410  -0.8723  -0.8558  -0.1494  -0.0942  -0.0806  -0.0446   0.2507
     0.3964   0.4920   0.5149   0.6706   0.9840   1.0274   1.0310   1.0887
     1.1999   1.3793   1.4279   1.8445   1.8765   1.9457   1.9893   2.1508

          k = 0.2083-0.6495 0.0000 (192946 PWs)   bands (ev):

   -53.4954 -25.4199 -25.4107 -25.4103  -9.5780  -8.7034  -8.5548  -8.4545
    -7.6852  -7.5867  -7.4632  -7.4375  -6.9129  -6.5752  -6.4522  -6.3565
    -6.0505  -5.8050  -5.3533  -4.9522  -4.8956  -4.8324  -4.7124  -3.9089
    -3.8583  -3.8114  -3.7502  -3.6143  -2.8401  -2.7844  -2.6649  -2.5278
    -2.3540  -2.3189  -1.9209  -1.7060  -1.5101  -1.4935  -1.4735  -1.3938
    -1.2630  -0.9904  -0.8814  -0.5095  -0.4430  -0.3551  -0.1405   0.0056
     0.1933   0.2103   0.3967   0.4713   0.7965   1.1391   1.1881   1.2248
     1.3568   1.3994   1.5437   1.5512   1.5544   1.9313   2.0385   2.0692

          k = 0.2083-0.5052 0.0000 (192924 PWs)   bands (ev):

   -53.4954 -25.4199 -25.4106 -25.4103  -9.8288  -8.9527  -8.8043  -7.9580
    -7.9330  -7.7103  -7.1606  -7.0933  -6.9439  -6.6978  -6.2962  -6.0849
    -5.8677  -5.3167  -5.1381  -5.0755  -4.9590  -4.8683  -4.4685  -4.1490
    -4.1004  -3.3357  -3.2817  -3.1357  -2.9016  -2.8576  -2.7641  -2.5898
    -2.5556  -2.3747  -2.3322  -2.0724  -1.9229  -1.7426  -1.7267  -1.3171
    -1.0022  -0.9046  -0.8410  -0.8079  -0.6689  -0.5771  -0.3515  -0.1668
     0.0036   0.0240   0.0341   0.1719   0.3397   0.6283   0.9793   1.2427
     1.3299   1.4520   1.6041   1.7630   1.7996   1.8160   1.8854   2.0033

          k = 0.2083-0.3608 0.0000 (192925 PWs)   bands (ev):

   -53.4954 -25.4199 -25.4106 -25.4103 -10.0173  -9.1400  -8.9917  -8.1193
    -7.8960  -7.4016  -7.3464  -6.8824  -6.5405  -6.4809  -6.3908  -5.5362
    -5.3204  -5.3201  -5.2583  -5.1445  -4.7692  -4.3299  -4.3273  -4.2836
    -3.9296  -3.7525  -3.0827  -2.9425  -2.9410  -2.8229  -2.7731  -2.7625
    -2.7573  -2.7311  -2.5995  -2.0041  -1.9219  -1.9130  -1.9013  -1.8915
    -1.5316  -1.1968  -0.7622  -0.5951  -0.5250  -0.5159  -0.4929  -0.3079
    -0.1506  -0.1334  -0.1289  -0.0014   0.3754   0.6086   0.7911   0.8230
     0.9483   1.1532   1.4302   1.6148   1.7396   1.7542   1.7786   1.8765

          k = 0.2083-0.2165 0.0000 (192892 PWs)   bands (ev):

   -53.4954 -25.4199 -25.4106 -25.4103 -10.1430  -9.2650  -9.1168  -8.2436
    -8.0199  -7.4707  -7.0055  -6.7858  -6.6041  -5.9288  -5.7794  -5.4418
    -5.3803  -5.2682  -4.9299  -4.7156  -4.5933  -4.4504  -4.4061  -4.1658
    -3.7707  -3.7159  -3.6078  -3.3461  -3.2017  -3.0601  -2.8858  -2.8529
    -2.8283  -2.5817  -2.2336  -2.1155  -2.0638  -2.0433  -2.0300  -2.0110
    -1.6813  -1.2108  -1.0442  -0.9158  -0.8681  -0.6330  -0.2556  -0.1580
    -0.1269  -0.0787   0.1286   0.1569   0.2521   0.4149   0.5154   0.6974
     1.0207   1.0384   1.0804   1.2097   1.4070   1.5189   1.6601   1.7800

          k = 0.2083-0.0722 0.0000 (192934 PWs)   bands (ev):

   -53.4954 -25.4199 -25.4106 -25.4103 -10.2059  -9.3275  -9.1794  -8.3058
    -8.0819  -7.5328  -7.0672  -6.6658  -6.1118  -5.5027  -5.4415  -5.3805
    -5.3302  -5.2597  -5.1101  -4.5360  -4.5108  -4.4675  -4.3852  -4.2686
    -4.0532  -3.5566  -3.5097  -3.3421  -3.2620  -3.1194  -3.0980  -2.9455
    -2.9124  -2.8047  -2.7723  -2.2611  -2.0977  -2.0817  -2.0152  -1.6014
    -1.4769  -1.2717  -0.9350  -0.8647  -0.7618  -0.7280  -0.6908  -0.3196
    -0.2872  -0.2502  -0.1770   0.2244   0.3159   0.6380   0.7569   0.8028
     0.9751   0.9897   1.0665   1.4437   1.4894   1.5752   1.6059   1.7370

          k = 0.2917 0.0722 0.0000 (192893 PWs)   bands (ev):

   -53.4954 -25.4199 -25.4106 -25.4103 -10.1430  -9.5153  -9.1168  -8.4925
    -7.7723  -7.4706  -6.8512  -6.7593  -6.0507  -5.9288  -5.4418  -5.3200
    -5.2738  -5.1317  -5.0496  -4.9301  -4.7157  -4.6531  -4.4478  -4.3257
    -3.7708  -3.7160  -3.4516  -3.3459  -3.0603  -2.9763  -2.8836  -2.8467
    -2.8285  -2.7524  -2.5817  -2.2636  -2.1114  -2.0313  -1.9893  -1.6813
    -1.5381  -1.1021  -1.0727  -1.0386  -0.9122  -0.6699  -0.6280  -0.3637
    -0.2522  -0.1499  -0.1171   0.1294   0.1595   0.4416   0.4880   0.6509
     1.0176   1.0969   1.2089   1.2728   1.3832   1.4029   1.5187   1.6553

          k = 0.2917 0.2165 0.0000 (192850 PWs)   bands (ev):

   -53.4954 -25.4199 -25.4106 -25.4103 -10.0801  -9.4526  -9.0543  -8.4303
    -7.7104  -7.4086  -6.7894  -6.7244  -6.6978  -6.1119  -5.8678  -5.7185
    -5.2121  -5.1110  -5.0707  -4.8695  -4.5917  -4.5331  -4.4152  -4.1062
    -3.9330  -3.5495  -3.5178  -3.4369  -3.2864  -2.9799  -2.9150  -2.7881
    -2.6276  -2.5223  -2.3088  -2.2053  -2.0737  -1.9851  -1.8976  -1.6231
    -1.5560  -1.5416  -1.1537  -0.9091  -0.8508  -0.6050  -0.4872  -0.0956
    -0.0398   0.1859   0.1942   0.3461   0.4094   0.4327   0.5018   0.5452
     0.6917   0.7702   0.9096   1.0418   1.2678   1.4597   1.5775   1.7267

          k = 0.2917 0.3608 0.0000 (192930 PWs)   bands (ev):

   -53.4954 -25.4199 -25.4106 -25.4103  -9.9544  -9.3275  -8.9292  -8.3058
    -7.5867  -7.3399  -7.2844  -6.7245  -6.6659  -6.5749  -6.3296  -5.7458
    -5.7187  -5.0885  -5.0170  -4.9492  -4.7485  -4.7087  -4.4688  -4.1082
    -4.0281  -3.6942  -3.2148  -3.1678  -3.1033  -2.7988  -2.7246  -2.6718
    -2.5542  -2.5279  -2.4036  -2.2720  -2.0928  -2.0440  -2.0214  -1.5063
    -1.3429  -1.2154  -0.7397  -0.5158  -0.4823  -0.4706  -0.3423  -0.2795
    -0.0639   0.0186   0.0441   0.2989   0.4224   0.4752   0.6177   0.6632
     0.6957   1.2268   1.3695   1.3925   1.5558   1.5794   1.6465   1.6882

          k = 0.2917 0.5052 0.0000 (192991 PWs)   bands (ev):

   -53.4954 -25.4199 -25.4106 -25.4103  -9.7661  -9.1400  -8.7419  -8.1193
    -7.8960  -7.4015  -7.2782  -7.0986  -6.8824  -6.4810  -6.3908  -6.2684
    -5.5632  -5.5629  -5.2558  -4.9029  -4.7671  -4.6494  -4.5670  -4.5666
    -4.2848  -3.7525  -3.0826  -2.9901  -2.9869  -2.8228  -2.7574  -2.6176
    -2.5094  -2.4807  -2.2260  -2.2256  -1.9097  -1.8919  -1.3351  -1.3298
    -1.1969  -0.7619  -0.6033  -0.5723  -0.5593  -0.4933  -0.3148  -0.1364
    -0.0479   0.2177   0.3759   0.4586   0.4646   0.5617   0.7914   0.8334
     1.1534   1.4263   1.5124   1.5260   1.7396   1.8295   2.0259   2.0765

          k = 0.2917 0.6495 0.0000 (192996 PWs)   bands (ev):

   -53.4954 -25.4199 -25.4107 -25.4103  -9.5153  -8.8903  -8.4925  -8.3923
    -7.8710  -7.7722  -7.3758  -7.1549  -6.8511  -6.7594  -6.2348  -6.1458
    -6.0507  -5.7438  -5.3198  -5.1342  -5.0498  -4.6566  -4.5248  -4.3260
    -4.2316  -4.0414  -3.5599  -3.4484  -3.2510  -2.9610  -2.7542  -2.3824
    -2.2554  -1.9893  -1.8827  -1.7259  -1.6725  -1.5395  -1.2114  -1.1016
    -1.0628  -0.9408  -0.8675  -0.6490  -0.3601  -0.1375  -0.0894  -0.0448
     0.4161   0.4614   0.4961   0.6511   1.0034   1.0358   1.0535   1.1989
     1.2750   1.3654   1.3943   1.4440   1.8409   1.8571   1.9418   1.9801

          k = 0.2917 0.7939 0.0000 (193052 PWs)   bands (ev):

   -53.4954 -25.4199 -25.4107 -25.4103  -9.2025  -8.8280  -8.5788  -8.2060
    -8.1814  -7.8090  -7.5613  -7.1906  -6.8472  -6.5426  -6.4789  -6.1732
    -5.9277  -5.8401  -5.5605  -5.4745  -5.0164  -4.6534  -4.3511  -4.2235
    -4.0257  -3.9836  -3.8635  -3.7377  -3.6661  -3.3756  -2.4627  -2.1205
    -2.0953  -1.9636  -1.7609  -1.6947  -1.6098  -1.3798  -1.3433  -1.0312
    -0.9004  -0.8187  -0.4861  -0.2598  -0.2129  -0.0212   0.1396   0.3205
     0.5236   0.5556   0.7075   0.8399   0.9020   0.9140   1.0698   1.2408
     1.2938   1.3201   1.3801   1.4902   1.6505   1.8303   1.8951   2.0631

          k = 0.2917-0.7939 0.0000 (193052 PWs)   bands (ev):

   -53.4954 -25.4199 -25.4107 -25.4103  -9.2025  -8.8280  -8.5788  -8.2060
    -8.1814  -7.8090  -7.5613  -7.1906  -6.8472  -6.5426  -6.4789  -6.1732
    -5.9277  -5.8401  -5.5605  -5.4745  -5.0164  -4.6534  -4.3511  -4.2235
    -4.0257  -3.9836  -3.8635  -3.7377  -3.6661  -3.3756  -2.4627  -2.1205
    -2.0953  -1.9636  -1.7609  -1.6947  -1.6098  -1.3798  -1.3433  -1.0312
    -0.9004  -0.8187  -0.4861  -0.2598  -0.2129  -0.0212   0.1396   0.3205
     0.5236   0.5556   0.7075   0.8399   0.9020   0.9140   1.0698   1.2408
     1.2938   1.3201   1.3801   1.4902   1.6505   1.8303   1.8951   2.0631

          k = 0.2917-0.6495 0.0000 (192996 PWs)   bands (ev):

   -53.4954 -25.4199 -25.4107 -25.4103  -9.5153  -8.8903  -8.4925  -8.3923
    -7.8710  -7.7722  -7.3758  -7.1549  -6.8511  -6.7594  -6.2348  -6.1458
    -6.0507  -5.7438  -5.3198  -5.1342  -5.0498  -4.6566  -4.5248  -4.3260
    -4.2316  -4.0414  -3.5599  -3.4484  -3.2510  -2.9610  -2.7542  -2.3824
    -2.2554  -1.9893  -1.8827  -1.7259  -1.6725  -1.5395  -1.2114  -1.1016
    -1.0628  -0.9408  -0.8675  -0.6490  -0.3601  -0.1375  -0.0894  -0.0448
     0.4161   0.4614   0.4961   0.6511   1.0034   1.0358   1.0535   1.1989
     1.2750   1.3654   1.3943   1.4440   1.8409   1.8571   1.9418   1.9801

          k = 0.2917-0.5052 0.0000 (192991 PWs)   bands (ev):

   -53.4954 -25.4199 -25.4106 -25.4103  -9.7661  -9.1400  -8.7419  -8.1193
    -7.8960  -7.4015  -7.2782  -7.0986  -6.8824  -6.4810  -6.3908  -6.2684
    -5.5632  -5.5629  -5.2558  -4.9029  -4.7671  -4.6494  -4.5670  -4.5666
    -4.2848  -3.7525  -3.0826  -2.9901  -2.9869  -2.8228  -2.7574  -2.6176
    -2.5094  -2.4807  -2.2260  -2.2256  -1.9097  -1.8919  -1.3351  -1.3298
    -1.1969  -0.7619  -0.6033  -0.5723  -0.5593  -0.4933  -0.3148  -0.1364
    -0.0479   0.2177   0.3759   0.4586   0.4646   0.5617   0.7914   0.8334
     1.1534   1.4263   1.5124   1.5260   1.7396   1.8295   2.0259   2.0765

          k = 0.2917-0.3608 0.0000 (192930 PWs)   bands (ev):

   -53.4954 -25.4199 -25.4106 -25.4103  -9.9544  -9.3275  -8.9292  -8.3058
    -7.5867  -7.3399  -7.2844  -6.7245  -6.6659  -6.5749  -6.3296  -5.7458
    -5.7187  -5.0885  -5.0170  -4.9492  -4.7485  -4.7087  -4.4688  -4.1082
    -4.0281  -3.6942  -3.2148  -3.1678  -3.1033  -2.7988  -2.7246  -2.6718
    -2.5542  -2.5279  -2.4036  -2.2720  -2.0928  -2.0440  -2.0214  -1.5063
    -1.3429  -1.2154  -0.7397  -0.5158  -0.4823  -0.4706  -0.3423  -0.2795
    -0.0639   0.0186   0.0441   0.2989   0.4224   0.4752   0.6177   0.6632
     0.6957   1.2268   1.3695   1.3925   1.5558   1.5794   1.6465   1.6882

          k = 0.2917-0.2165 0.0000 (192850 PWs)   bands (ev):

   -53.4954 -25.4199 -25.4106 -25.4103 -10.0801  -9.4526  -9.0543  -8.4303
    -7.7104  -7.4086  -6.7894  -6.7244  -6.6978  -6.1119  -5.8678  -5.7185
    -5.2121  -5.1110  -5.0707  -4.8695  -4.5917  -4.5331  -4.4152  -4.1062
    -3.9330  -3.5495  -3.5178  -3.4369  -3.2864  -2.9799  -2.9150  -2.7881
    -2.6276  -2.5223  -2.3088  -2.2053  -2.0737  -1.9851  -1.8976  -1.6231
    -1.5560  -1.5416  -1.1537  -0.9091  -0.8508  -0.6050  -0.4872  -0.0956
    -0.0398   0.1859   0.1942   0.3461   0.4094   0.4327   0.5018   0.5452
     0.6917   0.7702   0.9096   1.0418   1.2678   1.4597   1.5775   1.7267

          k = 0.2917-0.0722 0.0000 (192893 PWs)   bands (ev):

   -53.4954 -25.4199 -25.4106 -25.4103 -10.1430  -9.5153  -9.1168  -8.4925
    -7.7723  -7.4706  -6.8512  -6.7593  -6.0507  -5.9288  -5.4418  -5.3200
    -5.2738  -5.1317  -5.0496  -4.9301  -4.7157  -4.6531  -4.4478  -4.3257
    -3.7708  -3.7160  -3.4516  -3.3459  -3.0603  -2.9763  -2.8836  -2.8467
    -2.8285  -2.7524  -2.5817  -2.2636  -2.1114  -2.0313  -1.9893  -1.6813
    -1.5381  -1.1021  -1.0727  -1.0386  -0.9122  -0.6699  -0.6280  -0.3637
    -0.2522  -0.1499  -0.1171   0.1294   0.1595   0.4416   0.4880   0.6509
     1.0176   1.0969   1.2089   1.2728   1.3832   1.4029   1.5187   1.6553

          k = 0.3750 0.0722 0.0000 (192872 PWs)   bands (ev):

   -53.4954 -25.4199 -25.4106 -25.4103 -10.0592  -9.6824  -9.0334  -8.6587
    -7.4428  -7.3877  -7.0159  -6.4319  -6.3362  -5.9694  -5.6038  -5.3339
    -5.2392  -5.1900  -4.9693  -4.8763  -4.8210  -4.8051  -4.6077  -4.2461
    -3.8910  -3.7325  -3.4363  -3.3745  -3.0451  -2.7986  -2.7232  -2.6895
    -2.6404  -2.6004  -2.4178  -2.3660  -2.1624  -2.1070  -1.7654  -1.7552
    -1.5618  -1.4134  -1.2167  -0.8053  -0.7710  -0.6929  -0.4878  -0.4502
    -0.3639  -0.1273  -0.0046   0.0152   0.0338   0.3115   0.3568   0.6397
     0.8410   0.8622   0.9557   1.1787   1.3686   1.4922   1.5346   1.6235

          k = 0.3750 0.2165 0.0000 (192883 PWs)   bands (ev):

   -53.4954 -25.4199 -25.4106 -25.4103  -9.9963  -9.6197  -8.9709  -8.5964
    -7.3811  -7.3257  -6.9541  -6.6426  -6.3706  -6.2755  -6.2744  -5.6373
    -5.2756  -5.2705  -5.1279  -4.7599  -4.7442  -4.4532  -4.1226  -4.0640
    -4.0268  -3.6781  -3.6673  -3.4726  -3.1473  -3.1049  -3.0178  -2.7373
    -2.5811  -2.3594  -2.1928  -2.0497  -2.0476  -1.9276  -1.7518  -1.7460
    -1.5105  -1.4962  -1.1519  -0.8400  -0.7512  -0.7353  -0.4268  -0.3689
    -0.0739   0.0790   0.1562   0.3211   0.4074   0.5687   0.6460   0.6914
     0.7019   0.8193   0.8950   0.9101   0.9284   1.1324   1.5727   1.7470

          k = 0.3750 0.3608 0.0000 (192896 PWs)   bands (ev):

   -53.4954 -25.4199 -25.4106 -25.4103  -9.8707  -9.4944  -8.8460  -8.4718
    -7.2584  -7.2571  -7.2016  -6.8883  -6.8303  -6.2502  -6.2458  -6.1526
    -5.8813  -5.1516  -5.0048  -4.6949  -4.6429  -4.6229  -4.6222  -4.2675
    -3.7114  -3.6446  -3.5818  -3.5530  -3.2566  -2.6781  -2.6349  -2.6156
    -2.4750  -2.4592  -2.4239  -2.2429  -2.1558  -1.9843  -1.9308  -1.3875
    -1.2928  -1.0737  -0.6918  -0.6271  -0.5960  -0.3296  -0.2919  -0.0794
     0.0377   0.1556   0.1887   0.2025   0.3539   0.4720   0.5304   0.8040
     0.8486   1.0121   1.0248   1.0371   1.4492   1.5296   1.5683   1.6810

          k = 0.3750 0.5052 0.0000 (192945 PWs)   bands (ev):

   -53.4954 -25.4199 -25.4106 -25.4103  -9.6825  -9.3066  -8.6587  -8.2850
    -7.8135  -7.4426  -7.0729  -7.0159  -6.8004  -6.6452  -6.4319  -6.0644
    -5.9693  -5.2391  -5.1746  -4.9697  -4.8242  -4.8054  -4.4541  -4.4399
    -4.2460  -4.1520  -3.3744  -3.1755  -3.0017  -2.7205  -2.6923  -2.6504
    -2.4378  -2.3659  -2.2861  -2.0627  -1.9043  -1.7552  -1.4604  -1.4135
    -1.2150  -0.6903  -0.4729  -0.4515  -0.3588  -0.1430  -0.1105  -0.0250
     0.0072   0.2308   0.3197   0.3731   0.5716   0.6993   0.8267   0.8510
     0.9590   1.1854   1.2042   1.4287   1.6135   1.7504   1.8599   1.9924

          k = 0.3750 0.6495 0.0000 (193025 PWs)   bands (ev):

   -53.4954 -25.4199 -25.4107 -25.4103  -9.4319  -9.0567  -8.4095  -8.3095
    -8.0365  -7.9373  -7.2935  -6.9236  -6.8269  -6.7685  -6.3986  -5.8201
    -5.7255  -5.7252  -5.6621  -5.2962  -4.7279  -4.7270  -4.6333  -4.5733
    -4.2115  -4.1971  -3.6471  -3.4783  -3.1410  -3.1360  -3.1134  -2.2044
    -2.1127  -2.0535  -1.8278  -1.7756  -1.5223  -1.5213  -1.1416  -0.9925
    -0.9851  -0.8396  -0.7857  -0.4568  -0.2384  -0.2264   0.0773   0.1737
     0.4543   0.5758   0.5994   0.7114   0.9175   1.0697   1.0810   1.2309
     1.3049   1.3273   1.3603   1.4186   1.6153   1.6231   1.6705   1.7493

          k = 0.3750 0.7939 0.0000 (193030 PWs)   bands (ev):

   -53.4954 -25.4199 -25.4107 -25.4103  -9.1192  -8.7454  -8.7444  -8.3715
    -8.0986  -7.7287  -7.7241  -7.3552  -6.5200  -6.4603  -6.1526  -6.0968
    -6.0855  -5.7234  -5.5152  -5.4209  -5.1507  -5.0567  -4.4258  -4.2681
    -4.0653  -3.9199  -3.8978  -3.8872  -3.5501  -3.5324  -2.8421  -2.4940
    -1.9143  -1.7702  -1.5687  -1.5210  -1.4574  -1.2310  -1.1821  -0.9259
    -0.8149  -0.7348  -0.3826  -0.3595  -0.0296   0.2137   0.2687   0.3869
     0.5419   0.5699   0.6928   0.7412   0.9068   0.9694   1.0865   1.1529
     1.1949   1.2621   1.3448   1.6574   1.6787   1.7010   1.7169   1.8175

          k = 0.3750-0.7939 0.0000 (193030 PWs)   bands (ev):

   -53.4954 -25.4199 -25.4107 -25.4103  -9.1192  -8.7454  -8.7444  -8.3715
    -8.0986  -7.7287  -7.7241  -7.3552  -6.5200  -6.4603  -6.1526  -6.0968
    -6.0855  -5.7234  -5.5152  -5.4209  -5.1507  -5.0567  -4.4258  -4.2681
    -4.0653  -3.9199  -3.8978  -3.8872  -3.5501  -3.5324  -2.8421  -2.4940
    -1.9143  -1.7702  -1.5687  -1.5210  -1.4574  -1.2310  -1.1821  -0.9259
    -0.8149  -0.7348  -0.3826  -0.3595  -0.0296   0.2137   0.2687   0.3869
     0.5419   0.5699   0.6928   0.7412   0.9068   0.9694   1.0865   1.1529
     1.1949   1.2621   1.3448   1.6574   1.6787   1.7010   1.7169   1.8175

          k = 0.3750-0.6495 0.0000 (193025 PWs)   bands (ev):

   -53.4954 -25.4199 -25.4107 -25.4103  -9.4319  -9.0567  -8.4095  -8.3095
    -8.0365  -7.9373  -7.2935  -6.9236  -6.8269  -6.7685  -6.3986  -5.8201
    -5.7255  -5.7252  -5.6621  -5.2962  -4.7279  -4.7270  -4.6333  -4.5733
    -4.2115  -4.1971  -3.6471  -3.4783  -3.1410  -3.1360  -3.1134  -2.2044
    -2.1127  -2.0535  -1.8278  -1.7756  -1.5223  -1.5213  -1.1416  -0.9925
    -0.9851  -0.8396  -0.7857  -0.4568  -0.2384  -0.2264   0.0773   0.1737
     0.4543   0.5758   0.5994   0.7114   0.9175   1.0697   1.0810   1.2309
     1.3049   1.3273   1.3603   1.4186   1.6153   1.6231   1.6705   1.7493

          k = 0.3750-0.5052 0.0000 (192945 PWs)   bands (ev):

   -53.4954 -25.4199 -25.4106 -25.4103  -9.6825  -9.3066  -8.6587  -8.2850
    -7.8135  -7.4426  -7.0729  -7.0159  -6.8004  -6.6452  -6.4319  -6.0644
    -5.9693  -5.2391  -5.1746  -4.9697  -4.8242  -4.8054  -4.4541  -4.4399
    -4.2460  -4.1520  -3.3744  -3.1755  -3.0017  -2.7205  -2.6923  -2.6504
    -2.4378  -2.3659  -2.2861  -2.0627  -1.9043  -1.7552  -1.4604  -1.4135
    -1.2150  -0.6903  -0.4729  -0.4515  -0.3588  -0.1430  -0.1105  -0.0250
     0.0072   0.2308   0.3197   0.3731   0.5716   0.6993   0.8267   0.8510
     0.9590   1.1854   1.2042   1.4287   1.6135   1.7504   1.8599   1.9924

          k = 0.3750-0.3608 0.0000 (192896 PWs)   bands (ev):

   -53.4954 -25.4199 -25.4106 -25.4103  -9.8707  -9.4944  -8.8460  -8.4718
    -7.2584  -7.2571  -7.2016  -6.8883  -6.8303  -6.2502  -6.2458  -6.1526
    -5.8813  -5.1516  -5.0048  -4.6949  -4.6429  -4.6229  -4.6222  -4.2675
    -3.7114  -3.6446  -3.5818  -3.5530  -3.2566  -2.6781  -2.6349  -2.6156
    -2.4750  -2.4592  -2.4239  -2.2429  -2.1558  -1.9843  -1.9308  -1.3875
    -1.2928  -1.0737  -0.6918  -0.6271  -0.5960  -0.3296  -0.2919  -0.0794
     0.0377   0.1556   0.1887   0.2025   0.3539   0.4720   0.5304   0.8040
     0.8486   1.0121   1.0248   1.0371   1.4492   1.5296   1.5683   1.6810

          k = 0.3750-0.2165 0.0000 (192883 PWs)   bands (ev):

   -53.4954 -25.4199 -25.4106 -25.4103  -9.9963  -9.6197  -8.9709  -8.5964
    -7.3811  -7.3257  -6.9541  -6.6426  -6.3706  -6.2755  -6.2744  -5.6373
    -5.2756  -5.2705  -5.1279  -4.7599  -4.7442  -4.4532  -4.1226  -4.0640
    -4.0268  -3.6781  -3.6673  -3.4726  -3.1473  -3.1049  -3.0178  -2.7373
    -2.5811  -2.3594  -2.1928  -2.0497  -2.0476  -1.9276  -1.7518  -1.7460
    -1.5105  -1.4962  -1.1519  -0.8400  -0.7512  -0.7353  -0.4268  -0.3689
    -0.0739   0.0790   0.1562   0.3211   0.4074   0.5687   0.6460   0.6914
     0.7019   0.8193   0.8950   0.9101   0.9284   1.1324   1.5727   1.7470

          k = 0.3750-0.0722 0.0000 (192872 PWs)   bands (ev):

   -53.4954 -25.4199 -25.4106 -25.4103 -10.0592  -9.6824  -9.0334  -8.6587
    -7.4428  -7.3877  -7.0159  -6.4319  -6.3362  -5.9694  -5.6038  -5.3339
    -5.2392  -5.1900  -4.9693  -4.8763  -4.8210  -4.8051  -4.6077  -4.2461
    -3.8910  -3.7325  -3.4363  -3.3745  -3.0451  -2.7986  -2.7232  -2.6895
    -2.6404  -2.6004  -2.4178  -2.3660  -2.1624  -2.1070  -1.7654  -1.7552
    -1.5618  -1.4134  -1.2167  -0.8053  -0.7710  -0.6929  -0.4878  -0.4502
    -0.3639  -0.1273  -0.0046   0.0152   0.0338   0.3115   0.3568   0.6397
     0.8410   0.8622   0.9557   1.1787   1.3686   1.4922   1.5346   1.6235

          k = 0.4583 0.0722 0.0000 (192888 PWs)   bands (ev):

   -53.4954 -25.4199 -25.4106 -25.4103  -9.9545  -9.8286  -8.9293  -8.8043
    -7.2848  -7.1603  -7.0932  -6.7244  -6.0850  -5.8678  -5.7457  -5.7188
    -5.1384  -5.0894  -5.0169  -4.9586  -4.8683  -4.7480  -4.4677  -4.1470
    -4.1082  -4.0282  -3.2799  -3.1677  -3.1032  -2.7645  -2.7056  -2.5845
    -2.5490  -2.5323  -2.4035  -2.3306  -2.0725  -2.0496  -2.0224  -1.7363
    -1.5066  -1.3427  -1.3161  -0.8367  -0.7445  -0.6708  -0.4975  -0.3601
    -0.3388  -0.1179  -0.0447   0.0268   0.0697   0.2639   0.2992   0.3456
     0.4847   0.6301   1.2260   1.2435   1.3853   1.5291   1.6462   1.7924

          k = 0.4583 0.2165 0.0000 (192855 PWs)   bands (ev):

   -53.4954 -25.4199 -25.4106 -25.4103  -9.8917  -9.7659  -8.8668  -8.7419
    -7.2228  -7.0983  -7.0317  -6.6630  -6.5405  -6.4176  -6.0238  -5.6579
    -5.5359  -5.4144  -5.0273  -4.8967  -4.4074  -4.3535  -4.2343  -4.0481
    -3.9282  -3.8095  -3.7528  -3.4146  -3.3543  -3.2582  -2.8020  -2.6446
    -2.4877  -2.4742  -2.2720  -1.9918  -1.8922  -1.8690  -1.7610  -1.7251
    -1.4142  -1.2837  -1.1664  -0.9768  -0.7780  -0.6946  -0.4775  -0.2862
    -0.1697  -0.0429   0.1240   0.3208   0.4028   0.4427   0.5403   0.5691
     0.6250   0.7489   1.0291   1.0622   1.2355   1.2839   1.3936   1.5832

          k = 0.4583 0.3608 0.0000 (192914 PWs)   bands (ev):

   -53.4954 -25.4199 -25.4106 -25.4103  -9.7662  -9.6404  -8.7419  -8.6172
    -7.1552  -7.0988  -7.0316  -6.9744  -6.9086  -6.5403  -6.1461  -6.0238
    -5.9015  -5.5359  -4.9044  -4.7738  -4.5279  -4.4074  -4.3534  -4.2864
    -3.9940  -3.9277  -3.5135  -3.4145  -3.3542  -3.0205  -2.5681  -2.5314
    -2.4753  -2.3849  -2.3630  -2.2699  -2.1541  -1.8748  -1.7604  -1.4958
    -1.1663  -0.7785  -0.7466  -0.6939  -0.6613  -0.4900  -0.1718  -0.0181
     0.1094   0.1260   0.2417   0.3973   0.4379   0.4489   0.5221   0.6484
[...]

     atom    1 type  1   force =     0.00001775   -0.00000000   -0.00173789
     atom    2 type  1   force =     0.00087070   -0.00000000   -0.00364368
     atom    3 type  1   force =    -0.00074171    0.00000000    0.00427079
     atom    4 type  1   force =    -0.00008267    0.00000000    0.00110113
     atom    5 type  1   force =     0.00075944    0.00000000    0.00455365
     atom    6 type  1   force =     0.00004476   -0.00000000    0.00355882
     atom    7 type  1   force =    -0.00082744    0.00000000   -0.00402392
     atom    8 type  1   force =    -0.00002978    0.00014490    0.00455418
     atom    9 type  1   force =     0.00070189   -0.00030549    0.00249215
     atom   10 type  1   force =    -0.00029111    0.00001988   -0.00336544
     atom   11 type  1   force =     0.00042031    0.00008182   -0.00464066
     atom   12 type  1   force =     0.00040531    0.00023678   -0.00440765
     atom   13 type  1   force =    -0.00017126    0.00021321   -0.00467185
     atom   14 type  1   force =    -0.00099516   -0.00015934    0.00278452
     atom   15 type  1   force =     0.00032052    0.00036367    0.00254573
     atom   16 type  1   force =    -0.00002979   -0.00014490    0.00455418
     atom   17 type  1   force =     0.00070189    0.00030549    0.00249215
     atom   18 type  1   force =    -0.00029111   -0.00001988   -0.00336544
     atom   19 type  1   force =     0.00042031   -0.00008182   -0.00464066
     atom   20 type  1   force =     0.00040531   -0.00023678   -0.00440765
     atom   21 type  1   force =    -0.00017126   -0.00021321   -0.00467185
     atom   22 type  1   force =    -0.00099516    0.00015934    0.00278452
     atom   23 type  1   force =     0.00032052   -0.00036367    0.00254573
     atom   24 type  1   force =     0.00004913   -0.00000000    0.00451321
     atom   25 type  1   force =     0.00043090    0.00000000    0.00360063
     atom   26 type  1   force =    -0.00079754   -0.00000000   -0.00426523
     atom   27 type  1   force =    -0.00060741    0.00000000   -0.00781203
     atom   28 type  1   force =     0.00051867   -0.00000000   -0.00358216
     atom   29 type  1   force =     0.00024620   -0.00000000   -0.00205026
     atom   30 type  1   force =     0.00006350    0.00000000    0.00172091
     atom   31 type  1   force =    -0.00063816   -0.00000000    0.00265546
     atom   32 type  1   force =    -0.00003351    0.00000000    0.01487396
     atom   33 type  2   force =     0.00000595   -0.00000000   -0.00431534
     The non-local contrib.  to forces
     atom    1 type  1   force =     0.00035124   -0.00000000   -0.03826969
     atom    2 type  1   force =    -0.00161583   -0.00000000   -0.00309256
     atom    3 type  1   force =     0.00104118   -0.00000000    0.00600455
     atom    4 type  1   force =    -0.00014742    0.00000000    0.03623555
     atom    5 type  1   force =    -0.00092896    0.00000000    0.00723622
     atom    6 type  1   force =     0.00002625    0.00000000    0.04042049
     atom    7 type  1   force =     0.00140142    0.00000000   -0.00466733
     atom    8 type  1   force =     0.00168039    0.00020558    0.00715988
     atom    9 type  1   force =     0.00012572    0.00007496    0.03814151
     atom   10 type  1   force =    -0.00023065    0.00047271   -0.00385004
     atom   11 type  1   force =    -0.00062485   -0.00035141   -0.03873173
     atom   12 type  1   force =     0.00004122   -0.00020782   -0.00569663
     atom   13 type  1   force =     0.00023858   -0.00050611   -0.03794192
     atom   14 type  1   force =    -0.00027596    0.00000179    0.03739767
     atom   15 type  1   force =    -0.00132025    0.00029072    0.00274602
     atom   16 type  1   force =     0.00168038   -0.00020558    0.00715988
     atom   17 type  1   force =     0.00012572   -0.00007496    0.03814151
     atom   18 type  1   force =    -0.00023065   -0.00047271   -0.00385004
     atom   19 type  1   force =    -0.00062485    0.00035141   -0.03873173
     atom   20 type  1   force =     0.00004123    0.00020782   -0.00569663
     atom   21 type  1   force =     0.00023857    0.00050611   -0.03794192
     atom   22 type  1   force =    -0.00027596   -0.00000179    0.03739767
     atom   23 type  1   force =    -0.00132025   -0.00029072    0.00274602
     atom   24 type  1   force =    -0.00149276    0.00000000    0.00685072
     atom   25 type  1   force =    -0.00034757    0.00000000    0.03964620
     atom   26 type  1   force =     0.00041895    0.00000000   -0.00517888
     atom   27 type  1   force =     0.00015074   -0.00000000   -0.04133819
     atom   28 type  1   force =    -0.00093236   -0.00000000   -0.00417873
     atom   29 type  1   force =     0.00069238   -0.00000000   -0.03755959
     atom   30 type  1   force =     0.00007977    0.00000000    0.03579925
     atom   31 type  1   force =     0.00118035    0.00000000    0.00305823
     atom   32 type  1   force =    -0.00016597    0.00000000    0.01367941
     atom   33 type  2   force =    -0.00003348   -0.00000000   -0.34139821
     The ionic contribution  to forces
     atom    1 type  1   force =    -0.00000000   -0.00000000   -8.37606502
     atom    2 type  1   force =    -0.02536111   -0.00000000    3.95345377
     atom    3 type  1   force =     0.11081009   -0.00000000   -1.94142688
     atom    4 type  1   force =    -0.00000006   -0.00000000    9.82567551
     atom    5 type  1   force =    -0.11081017   -0.00000000   -2.04750200
     atom    6 type  1   force =     0.00000077   -0.00000000    9.83912590
     atom    7 type  1   force =     0.02536116    0.00000000    3.92595344
     atom    8 type  1   force =     0.06032958    0.00481562   -2.09630161
     atom    9 type  1   force =    -0.00667348    0.00006960    9.83234840
     atom   10 type  1   force =     0.01487576    0.00129928    3.96558533
     atom   11 type  1   force =    -0.54905601    0.11523895   -7.97428501
     atom   12 type  1   force =    -0.01443416   -0.00053435    3.91484010
     atom   13 type  1   force =     0.54905516   -0.11523890   -7.97428441
     atom   14 type  1   force =     0.00667272   -0.00006960    9.83234754
     atom   15 type  1   force =    -0.06886813   -0.01960496   -1.87323836
     atom   16 type  1   force =     0.06032958   -0.00481562   -2.09630161
     atom   17 type  1   force =    -0.00667348   -0.00006960    9.83234840
     atom   18 type  1   force =     0.01487576   -0.00129928    3.96558533
     atom   19 type  1   force =    -0.54905601   -0.11523895   -7.97428501
     atom   20 type  1   force =    -0.01443416    0.00053435    3.91484010
     atom   21 type  1   force =     0.54905516    0.11523890   -7.97428441
     atom   22 type  1   force =     0.00667272    0.00006960    9.83234754
     atom   23 type  1   force =    -0.06886813    0.01960496   -1.87323836
     atom   24 type  1   force =    -0.10383394   -0.00000000   -2.06024273
     atom   25 type  1   force =     0.00000077   -0.00000000    9.83893237
     atom   26 type  1   force =     0.02495071    0.00000000    3.92466820
     atom   27 type  1   force =     0.00000071   -0.00000000   -7.59590775
     atom   28 type  1   force =    -0.02583392   -0.00000000    3.95575694
     atom   29 type  1   force =    -0.00000000   -0.00000000   -8.35266187
     atom   30 type  1   force =    -0.00000006    0.00000000    9.82576353
     atom   31 type  1   force =     0.12091112    0.00000000   -1.90929750
     atom   32 type  1   force =     0.00000071    0.00000000   -6.74874263
     atom   33 type  2   force =     0.00000032   -0.00000000  -31.31150724
     The local contribution  to forces
     atom    1 type  1   force =    -0.00031469    0.00000000    8.42990590
     atom    2 type  1   force =     0.02773349   -0.00000000   -3.93255956
     atom    3 type  1   force =    -0.11252343    0.00000000    1.96160882
     atom    4 type  1   force =     0.00005281   -0.00000000   -9.83509221
     atom    5 type  1   force =     0.11243616    0.00000000    2.06682157
     atom    6 type  1   force =     0.00002259    0.00000000   -9.84998141
     atom    7 type  1   force =    -0.02749081   -0.00000000   -3.90395987
     atom    8 type  1   force =    -0.06192898   -0.00486347    2.11568959
     atom    9 type  1   force =     0.00725772   -0.00044403   -9.84214721
     atom   10 type  1   force =    -0.01495333   -0.00172051   -3.94371076
     atom   11 type  1   force =     0.55006776   -0.11482867    8.02565855
     atom   12 type  1   force =     0.01480125    0.00096314   -3.89226661
     atom   13 type  1   force =    -0.54945891    0.11592266    8.02488506
     atom   14 type  1   force =    -0.00740934   -0.00009060   -9.84115766
     atom   15 type  1   force =     0.07041956    0.01969290    1.89476640
     atom   16 type  1   force =    -0.06192898    0.00486347    2.11568959
     atom   17 type  1   force =     0.00725772    0.00044403   -9.84214721
     atom   18 type  1   force =    -0.01495333    0.00172051   -3.94371076
     atom   19 type  1   force =     0.55006776    0.11482867    8.02565855
     atom   20 type  1   force =     0.01480125   -0.00096314   -3.89226661
     atom   21 type  1   force =    -0.54945890   -0.11592266    8.02488506
     atom   22 type  1   force =    -0.00740934    0.00009060   -9.84115766
     atom   23 type  1   force =     0.07041956   -0.01969290    1.89476640
     atom   24 type  1   force =     0.10528184   -0.00000000    2.07988236
     atom   25 type  1   force =     0.00075494   -0.00000000   -9.84901956
     atom   26 type  1   force =    -0.02613528   -0.00000000   -3.90243538
     atom   27 type  1   force =    -0.00074044    0.00000000    7.64653500
     atom   28 type  1   force =     0.02722068    0.00000000   -3.93379153
     atom   29 type  1   force =    -0.00040695   -0.00000000    8.40553079
     atom   30 type  1   force =    -0.00001248    0.00000000   -9.83415199
     atom   31 type  1   force =    -0.12265016   -0.00000000    1.93063925
     atom   32 type  1   force =     0.00012564   -0.00000000    6.77113320
     atom   33 type  2   force =     0.00004926   -0.00000000   31.71332074
     The core correction contribution to forces
     atom    1 type  1   force =    -0.00002288    0.00000000    0.00427428
     atom    2 type  1   force =     0.00011239    0.00000000    0.00014440
     atom    3 type  1   force =    -0.00007184    0.00000000   -0.00032831
     atom    4 type  1   force =     0.00001040   -0.00000000   -0.00412805
     atom    5 type  1   force =     0.00006475    0.00000000   -0.00040847
     atom    6 type  1   force =    -0.00000283   -0.00000000   -0.00441625
     atom    7 type  1   force =    -0.00009767   -0.00000000    0.00024542
     atom    8 type  1   force =    -0.00011091   -0.00001267   -0.00040367
     atom    9 type  1   force =    -0.00001127   -0.00000599   -0.00426203
     atom   10 type  1   force =     0.00001634   -0.00003152    0.00020166
     atom   11 type  1   force =     0.00003542    0.00002294    0.00430375
     atom   12 type  1   force =    -0.00000203    0.00001574    0.00030918
     atom   13 type  1   force =    -0.00000814    0.00003558    0.00425158
     atom   14 type  1   force =     0.00002019   -0.00000095   -0.00421186
     atom   15 type  1   force =     0.00008952   -0.00001497   -0.00013744
     atom   16 type  1   force =    -0.00011091    0.00001267   -0.00040367
     atom   17 type  1   force =    -0.00001127    0.00000599   -0.00426203
     atom   18 type  1   force =     0.00001634    0.00003152    0.00020166
     atom   19 type  1   force =     0.00003542   -0.00002294    0.00430375
     atom   20 type  1   force =    -0.00000203   -0.00001574    0.00030918
     atom   21 type  1   force =    -0.00000814   -0.00003558    0.00425158
     atom   22 type  1   force =     0.00002019    0.00000095   -0.00421186
     atom   23 type  1   force =     0.00008952    0.00001497   -0.00013744
     atom   24 type  1   force =     0.00009623   -0.00000000   -0.00038345
     atom   25 type  1   force =     0.00002480   -0.00000000   -0.00436849
     atom   26 type  1   force =    -0.00003039   -0.00000000    0.00027632
     atom   27 type  1   force =    -0.00001432    0.00000000    0.00448398
     atom   28 type  1   force =     0.00006252    0.00000000    0.00022090
     atom   29 type  1   force =    -0.00004332    0.00000000    0.00422369
     atom   30 type  1   force =    -0.00000534   -0.00000000   -0.00410019
     atom   31 type  1   force =    -0.00008187   -0.00000000   -0.00015725
     atom   32 type  1   force =     0.00001025   -0.00000000    0.00038899
     atom   33 type  2   force =     0.00000000    0.00000000    0.00000000
     The Hubbard contrib.    to forces
     atom    1 type  1   force =     0.00000000    0.00000000    0.00000000
     atom    2 type  1   force =     0.00000000    0.00000000    0.00000000
     atom    3 type  1   force =     0.00000000    0.00000000    0.00000000
     atom    4 type  1   force =     0.00000000    0.00000000    0.00000000
     atom    5 type  1   force =     0.00000000    0.00000000    0.00000000
     atom    6 type  1   force =     0.00000000    0.00000000    0.00000000
     atom    7 type  1   force =     0.00000000    0.00000000    0.00000000
     atom    8 type  1   force =     0.00000000    0.00000000    0.00000000
     atom    9 type  1   force =     0.00000000    0.00000000    0.00000000
     atom   10 type  1   force =     0.00000000    0.00000000    0.00000000
     atom   11 type  1   force =     0.00000000    0.00000000    0.00000000
     atom   12 type  1   force =     0.00000000    0.00000000    0.00000000
     atom   13 type  1   force =     0.00000000    0.00000000    0.00000000
     atom   14 type  1   force =     0.00000000    0.00000000    0.00000000
     atom   15 type  1   force =     0.00000000    0.00000000    0.00000000
     atom   16 type  1   force =     0.00000000    0.00000000    0.00000000
     atom   17 type  1   force =     0.00000000    0.00000000    0.00000000
     atom   18 type  1   force =     0.00000000    0.00000000    0.00000000
     atom   19 type  1   force =     0.00000000    0.00000000    0.00000000
     atom   20 type  1   force =     0.00000000    0.00000000    0.00000000
     atom   21 type  1   force =     0.00000000    0.00000000    0.00000000
     atom   22 type  1   force =     0.00000000    0.00000000    0.00000000
     atom   23 type  1   force =     0.00000000    0.00000000    0.00000000
     atom   24 type  1   force =     0.00000000    0.00000000    0.00000000
     atom   25 type  1   force =     0.00000000    0.00000000    0.00000000
     atom   26 type  1   force =     0.00000000    0.00000000    0.00000000
     atom   27 type  1   force =     0.00000000    0.00000000    0.00000000
     atom   28 type  1   force =     0.00000000    0.00000000    0.00000000
     atom   29 type  1   force =     0.00000000    0.00000000    0.00000000
     atom   30 type  1   force =     0.00000000    0.00000000    0.00000000
     atom   31 type  1   force =     0.00000000    0.00000000    0.00000000
     atom   32 type  1   force =     0.00000000    0.00000000    0.00000000
     atom   33 type  2   force =     0.00000000    0.00000000    0.00000000
     The SCF correction term to forces
     atom    1 type  1   force =     0.00000408   -0.00000000    0.00000273
     atom    2 type  1   force =     0.00000176    0.00000000   -0.00000364
     atom    3 type  1   force =     0.00000229   -0.00000000   -0.00000130
     atom    4 type  1   force =     0.00000160    0.00000000   -0.00000358
     atom    5 type  1   force =    -0.00000234    0.00000000   -0.00000757
     atom    6 type  1   force =    -0.00000203   -0.00000000   -0.00000383
     atom    7 type  1   force =    -0.00000155   -0.00000000   -0.00000949
     atom    8 type  1   force =     0.00000013   -0.00000016   -0.00000392
     atom    9 type  1   force =     0.00000320   -0.00000002   -0.00000244
     atom   10 type  1   force =     0.00000077   -0.00000008   -0.00000554
     atom   11 type  1   force =    -0.00000201    0.00000000   -0.00000014
     atom   12 type  1   force =    -0.00000098    0.00000008   -0.00000761
     atom   13 type  1   force =     0.00000206   -0.00000003    0.00000392
     atom   14 type  1   force =    -0.00000277    0.00000003   -0.00000509
     atom   15 type  1   force =    -0.00000019   -0.00000002   -0.00000480
     atom   16 type  1   force =     0.00000013    0.00000016   -0.00000392
     atom   17 type  1   force =     0.00000320    0.00000002   -0.00000244
     atom   18 type  1   force =     0.00000077    0.00000008   -0.00000553
     atom   19 type  1   force =    -0.00000201   -0.00000000   -0.00000014
     atom   20 type  1   force =    -0.00000098   -0.00000008   -0.00000761
     atom   21 type  1   force =     0.00000206    0.00000003    0.00000392
     atom   22 type  1   force =    -0.00000277   -0.00000003   -0.00000509
     atom   23 type  1   force =    -0.00000019    0.00000002   -0.00000480
     atom   24 type  1   force =    -0.00000225   -0.00000000   -0.00000761
     atom   25 type  1   force =    -0.00000204    0.00000000   -0.00000381
     atom   26 type  1   force =    -0.00000154    0.00000000   -0.00000940
     atom   27 type  1   force =    -0.00000410   -0.00000000    0.00000102
     atom   28 type  1   force =     0.00000175   -0.00000000   -0.00000365
     atom   29 type  1   force =     0.00000408    0.00000000    0.00000281
     atom   30 type  1   force =     0.00000160   -0.00000000   -0.00000360
     atom   31 type  1   force =     0.00000240    0.00000000   -0.00000118
     atom   32 type  1   force =    -0.00000414    0.00000000    0.00000106
     atom   33 type  2   force =    -0.00001016    0.00000000    0.00000193

     Total force =     0.026547     Total SCF correction =     0.000032

     Writing all to output data dir ./temp2/AlwithNa_M0D008.save/

     init_run     :     19.80s CPU     13.01s WALL (       1 calls)
     electrons    :    782.59s CPU    492.87s WALL (       1 calls)
     forces       :     10.91s CPU      6.19s WALL (       1 calls)

     Called by init_run:
     wfcinit      :      9.73s CPU      6.06s WALL (       1 calls)
     potinit      :      4.38s CPU      2.28s WALL (       1 calls)
     hinit0       :      5.30s CPU      4.27s WALL (       1 calls)

     Called by electrons:
     c_bands      :    669.89s CPU    431.02s WALL (      38 calls)
     sum_band     :    103.60s CPU     53.91s WALL (      38 calls)
     v_of_rho     :      6.38s CPU      5.37s WALL (      39 calls)
     mix_rho      :      2.23s CPU      2.09s WALL (      38 calls)

     Called by c_bands:
     init_us_2    :     27.81s CPU     14.00s WALL (     468 calls)
     init_us_2:cp :     27.80s CPU     13.99s WALL (     468 calls)
     cegterg      :    569.34s CPU    361.55s WALL (     228 calls)

     Called by *egterg:
     cdiaghg      :      4.49s CPU      4.52s WALL (    1248 calls)
     h_psi        :    511.31s CPU    309.51s WALL (    1254 calls)
     g_psi        :      2.34s CPU      1.18s WALL (    1020 calls)

     Called by h_psi:
     h_psi:calbec :     49.33s CPU     42.90s WALL (    1254 calls)
     vloc_psi     :    405.91s CPU    212.62s WALL (    1254 calls)
     add_vuspsi   :     51.54s CPU     51.68s WALL (    1254 calls)

     General routines
     calbec       :     50.73s CPU     44.18s WALL (    1278 calls)
     fft          :      3.26s CPU      3.41s WALL (     400 calls)
     ffts         :      0.19s CPU      0.23s WALL (      38 calls)
     fftw         :    362.59s CPU    191.92s WALL (  101118 calls)

     Parallel routines

     PWSCF        :  13m34.47s CPU   8m34.27s WALL


   This run was terminated on:  21:33:45  20Mar2025            

=------------------------------------------------------------------------------=
   JOB DONE.
=------------------------------------------------------------------------------=
