
     Program PWSCF v.7.2 starts on 20Mar2025 at 18:49:10 

     This program is part of the open-source Quantum ESPRESSO suite
     for quantum simulation of materials; please cite
         "P. Giannozzi et al., J. Phys.:Condens. Matter 21 395502 (2009);
         "P. Giannozzi et al., J. Phys.:Condens. Matter 29 465901 (2017);
         "P. Giannozzi et al., J. Chem. Phys. 152 154105 (2020);
          URL http://www.quantum-espresso.org", 
     in publications or presentations arising from this work. More details at
     http://www.quantum-espresso.org/quote

     Parallel version (MPI & OpenMP), running on     288 processor cores
     Number of MPI processes:               144
     Threads/MPI process:                     2

     MPI processes distributed on     6 nodes
     733635 MiB available memory on the printing compute node when the environment starts

     Reading input from GaAs111_M0D002Ha.scf.in

     Current dimensions of program PWSCF are:
     Max number of different atomic species (ntypx) = 10
     Max number of k-points (npk) =  40000
     Max angular momentum in pseudopotentials (lmaxx) =  4
     Found identity + (  0.5000 -0.5000  0.0000) symmetry
     This is a supercell, fractional translations are disabled

     K-points division:     npool     =       8
     R & G space division:  proc/nbgrp/npool/nimage =      18
     Subspace diagonalization in iterative solution of the eigenvalue problem:
     one sub-group per band group will be used
     ELPA distributed-memory algorithm (size of sub-group:  2*  2 procs)


     Parallelization info
     --------------------
     sticks:   dense  smooth     PW     G-vecs:    dense   smooth      PW
     Min         288     288     78                82920    82920   11697
     Max         289     289     80                82953    82953   11708
     Sum        5197    5197   1417              1492917  1492917  210619

     Using Slab Decomposition



     bravais-lattice index     =            0
     lattice parameter (alat)  =      15.3672  a.u.
     unit-cell volume          =   15443.3545 (a.u.)^3
     number of atoms/cell      =           24
     number of atomic types    =            2
     number of electrons       =       336.00
     number of Kohn-Sham states=          202
     kinetic-energy cutoff     =      80.0000  Ry
     charge density cutoff     =     320.0000  Ry
     scf convergence threshold =      1.0E-09
     mixing beta               =       0.7000
     number of iterations used =            8  plain     mixing
     Exchange-correlation= PBE
                           (   1   4   3   4   0   0   0)

     celldm(1)=  15.367226  celldm(2)=   0.000000  celldm(3)=   0.000000
     celldm(4)=   0.000000  celldm(5)=   0.000000  celldm(6)=   0.000000

     crystal axes: (cart. coord. in units of alat)
               a(1) = (   1.000000   0.000000   0.000000 )  
               a(2) = (  -0.500000   0.866025   0.000000 )  
               a(3) = (   0.000000   0.000000   4.913881 )  

     reciprocal axes: (cart. coord. in units 2 pi/alat)
               b(1) = (  1.000000  0.577350 -0.000000 )  
               b(2) = (  0.000000  1.154701  0.000000 )  
               b(3) = (  0.000000 -0.000000  0.203505 )  


     PseudoPot. # 1 for Ga read from file:
     ./Ga.upf
     MD5 check sum: 93d095ea82f116b4e2622455073fb9ee
     Pseudo is Norm-conserving + core correction, Zval = 13.0
     Generated using ONCVPSP code by D. R. Hamann
     Using radial grid of 1902 points,  6 beta functions with: 
                l(1) =   0
                l(2) =   0
                l(3) =   1
                l(4) =   1
                l(5) =   2
                l(6) =   2

     PseudoPot. # 2 for As read from file:
     ./As.upf
     MD5 check sum: 280d9fd8ba68a23ae96e751fcede625c
     Pseudo is Norm-conserving + core correction, Zval = 15.0
     Generated using ONCVPSP code by D. R. Hamann
     Using radial grid of 1350 points,  6 beta functions with: 
                l(1) =   0
                l(2) =   0
                l(3) =   1
                l(4) =   1
                l(5) =   2
                l(6) =   2

     atomic species   valence    mass     pseudopotential
        Ga            13.00    69.72000     Ga( 1.00)
        As            15.00    74.92000     As( 1.00)

     No symmetry found



   Cartesian axes

     site n.     atom                  positions (alat units)
         1           Ga  tau(   1) = (   0.0000000   0.0000000   1.8955990  )
         2           Ga  tau(   2) = (   0.0000000   0.5773504   2.3038472  )
         3           Ga  tau(   3) = (   0.5000000   0.2886751   2.7120955  )
         4           Ga  tau(   4) = (   0.7500000   0.1443376   2.3038472  )
         5           Ga  tau(   5) = (  -0.2500001   0.7216878   2.7120955  )
         6           Ga  tau(   6) = (   0.2499999   0.4330127   1.8955990  )
         7           Ga  tau(   7) = (   0.4999999   0.5773504   2.3038472  )
         8           Ga  tau(   8) = (  -0.0000001   0.2886751   2.7120955  )
         9           Ga  tau(   9) = (   0.5000000   0.0000000   1.8955990  )
        10           Ga  tau(  10) = (   0.2500000   0.1443376   2.3038472  )
        11           Ga  tau(  11) = (   0.2500000   0.7216878   2.7120955  )
        12           Ga  tau(  12) = (  -0.2500000   0.4330127   1.8955990  )
        13           As  tau(  13) = (   0.7500000   0.1443376   2.6100335  )
        14           As  tau(  14) = (  -0.2500001   0.7216878   3.0182815  )
        15           As  tau(  15) = (   0.2499999   0.4330127   2.2017852  )
        16           As  tau(  16) = (   0.0000000   0.0000000   2.2017852  )
        17           As  tau(  17) = (   0.0000000   0.5773504   2.6100335  )
        18           As  tau(  18) = (   0.5000000   0.2886751   3.0182815  )
        19           As  tau(  19) = (   0.2500000   0.1443376   2.6100335  )
        20           As  tau(  20) = (   0.2500000   0.7216878   3.0182815  )
        21           As  tau(  21) = (  -0.2500000   0.4330127   2.2017852  )
        22           As  tau(  22) = (   0.4999999   0.5773504   2.6100335  )
        23           As  tau(  23) = (  -0.0000001   0.2886751   3.0182815  )
        24           As  tau(  24) = (   0.5000000   0.0000000   2.2017852  )

     number of k points=    50  Fermi-Dirac smearing, width (Ry)=  0.0000
                       cart. coord. in units 2pi/alat
        k(    1) = (   0.0500000   0.0866025   0.0000000), wk =   0.0400000
        k(    2) = (   0.0500000   0.2020726   0.0000000), wk =   0.0400000
        k(    3) = (   0.0500000   0.3175426   0.0000000), wk =   0.0400000
        k(    4) = (   0.0500000   0.4330127   0.0000000), wk =   0.0400000
        k(    5) = (   0.0500000   0.5484828   0.0000000), wk =   0.0400000
        k(    6) = (   0.0500000  -0.4907477   0.0000000), wk =   0.0400000
        k(    7) = (   0.0500000  -0.3752777   0.0000000), wk =   0.0400000
        k(    8) = (   0.0500000  -0.2598076   0.0000000), wk =   0.0400000
        k(    9) = (   0.0500000  -0.1443376   0.0000000), wk =   0.0400000
        k(   10) = (   0.0500000  -0.0288675   0.0000000), wk =   0.0400000
        k(   11) = (   0.1500000   0.1443376   0.0000000), wk =   0.0400000
        k(   12) = (   0.1500000   0.2598076   0.0000000), wk =   0.0400000
        k(   13) = (   0.1500000   0.3752777   0.0000000), wk =   0.0400000
        k(   14) = (   0.1500000   0.4907477   0.0000000), wk =   0.0400000
        k(   15) = (   0.1500000   0.6062178   0.0000000), wk =   0.0400000
        k(   16) = (   0.1500000  -0.4330127   0.0000000), wk =   0.0400000
        k(   17) = (   0.1500000  -0.3175426   0.0000000), wk =   0.0400000
        k(   18) = (   0.1500000  -0.2020726   0.0000000), wk =   0.0400000
        k(   19) = (   0.1500000  -0.0866025   0.0000000), wk =   0.0400000
        k(   20) = (   0.1500000   0.0288675   0.0000000), wk =   0.0400000
        k(   21) = (   0.2500000   0.2020726   0.0000000), wk =   0.0400000
        k(   22) = (   0.2500000   0.3175426   0.0000000), wk =   0.0400000
        k(   23) = (   0.2500000   0.4330127   0.0000000), wk =   0.0400000
        k(   24) = (   0.2500000   0.5484828   0.0000000), wk =   0.0400000
        k(   25) = (   0.2500000   0.6639528   0.0000000), wk =   0.0400000
        k(   26) = (   0.2500000  -0.3752777   0.0000000), wk =   0.0400000
        k(   27) = (   0.2500000  -0.2598076   0.0000000), wk =   0.0400000
        k(   28) = (   0.2500000  -0.1443376   0.0000000), wk =   0.0400000
        k(   29) = (   0.2500000  -0.0288675   0.0000000), wk =   0.0400000
        k(   30) = (   0.2500000   0.0866025   0.0000000), wk =   0.0400000
        k(   31) = (   0.3500000   0.2598076   0.0000000), wk =   0.0400000
        k(   32) = (   0.3500000   0.3752777   0.0000000), wk =   0.0400000
        k(   33) = (   0.3500000   0.4907477   0.0000000), wk =   0.0400000
        k(   34) = (   0.3500000   0.6062178   0.0000000), wk =   0.0400000
        k(   35) = (   0.3500000   0.7216878   0.0000000), wk =   0.0400000
        k(   36) = (   0.3500000  -0.3175426   0.0000000), wk =   0.0400000
        k(   37) = (   0.3500000  -0.2020726   0.0000000), wk =   0.0400000
        k(   38) = (   0.3500000  -0.0866025   0.0000000), wk =   0.0400000
        k(   39) = (   0.3500000   0.0288675   0.0000000), wk =   0.0400000
        k(   40) = (   0.3500000   0.1443376   0.0000000), wk =   0.0400000
        k(   41) = (   0.4500000   0.3175426   0.0000000), wk =   0.0400000
        k(   42) = (   0.4500000   0.4330127   0.0000000), wk =   0.0400000
        k(   43) = (   0.4500000   0.5484828   0.0000000), wk =   0.0400000
        k(   44) = (   0.4500000   0.6639528   0.0000000), wk =   0.0400000
        k(   45) = (   0.4500000   0.7794229   0.0000000), wk =   0.0400000
        k(   46) = (   0.4500000  -0.2598076   0.0000000), wk =   0.0400000
        k(   47) = (   0.4500000  -0.1443376   0.0000000), wk =   0.0400000
        k(   48) = (   0.4500000  -0.0288675   0.0000000), wk =   0.0400000
        k(   49) = (   0.4500000   0.0866025   0.0000000), wk =   0.0400000
        k(   50) = (   0.4500000   0.2020726   0.0000000), wk =   0.0400000

     Dense  grid:  1492917 G-vectors     FFT dimensions: (  90,  90, 432)

     Estimated max dynamical RAM per process >     508.21 MB

     Estimated total dynamical RAM >      68.98 GB

     Initial potential from superposition of free atoms

     starting charge     335.9650, renormalised to     336.0000

     negative rho (up, down):  1.366E-04 0.000E+00

     Adding external electric field

     Computed dipole along edir(3) : 
        Dipole               -0.0747 Ry au,         -0.1897 Debye
        Dipole field         -0.0001 Ry au, 

        E field amplitude [Ha a.u.]: -2.0000E-03
        Potential amp.       -0.2343 Ry
        Total length         60.4102 bohr

     Starting wfcs are  216 atomic wfcs

     total cpu time spent up to now is       19.1 secs

     Self-consistent Calculation

     iteration #  1     ecut=    80.00 Ry     beta= 0.70
     Davidson diagonalization with overlap
     ethr =  1.00E-02,  avg # of iterations =  3.0

     Threshold (ethr) on eigenvalues was too large:
     Diagonalizing with lowered threshold

     Davidson diagonalization with overlap
     ethr =  8.64E-04,  avg # of iterations =  2.0

     negative rho (up, down):  3.349E-05 0.000E+00

     Adding external electric field

     Computed dipole along edir(3) : 
        Dipole              -17.9370 Ry au,        -45.5913 Debye
        Dipole field         -0.0146 Ry au, 

        E field amplitude [Ha a.u.]: -2.0000E-03
        Potential amp.        1.5218 Ry
        Total length         60.4102 bohr


     total cpu time spent up to now is       74.7 secs

     total energy              =   -4144.54135207 Ry
     estimated scf accuracy    <       2.87531694 Ry

     iteration #  2     ecut=    80.00 Ry     beta= 0.70
     Davidson diagonalization with overlap
     ethr =  8.56E-04,  avg # of iterations = 16.9

     negative rho (up, down):  1.502E-05 0.000E+00

     Adding external electric field

     Computed dipole along edir(3) : 
        Dipole                3.1008 Ry au,          7.8814 Debye
        Dipole field          0.0025 Ry au, 

        E field amplitude [Ha a.u.]: -2.0000E-03
        Potential amp.       -0.5465 Ry
        Total length         60.4102 bohr


     total cpu time spent up to now is      158.0 secs

     total energy              =   -4093.53960164 Ry
     estimated scf accuracy    <    3202.40492128 Ry

     iteration #  3     ecut=    80.00 Ry     beta= 0.70
     Davidson diagonalization with overlap
     ethr =  8.56E-04,  avg # of iterations = 11.1

     negative rho (up, down):  1.316E-05 0.000E+00

     Adding external electric field

     Computed dipole along edir(3) : 
        Dipole                2.7558 Ry au,          7.0046 Debye
        Dipole field          0.0022 Ry au, 

        E field amplitude [Ha a.u.]: -2.0000E-03
        Potential amp.       -0.5126 Ry
        Total length         60.4102 bohr


     total cpu time spent up to now is      218.1 secs

     total energy              =   -4144.99861290 Ry
     estimated scf accuracy    <      31.78311030 Ry

     iteration #  4     ecut=    80.00 Ry     beta= 0.70
     Davidson diagonalization with overlap
     ethr =  8.56E-04,  avg # of iterations = 13.3

     negative rho (up, down):  7.788E-06 0.000E+00

     Adding external electric field

     Computed dipole along edir(3) : 
        Dipole                0.6781 Ry au,          1.7236 Debye
        Dipole field          0.0006 Ry au, 

        E field amplitude [Ha a.u.]: -2.0000E-03
        Potential amp.       -0.3083 Ry
        Total length         60.4102 bohr


     total cpu time spent up to now is      257.9 secs

     total energy              =   -4145.44220055 Ry
     estimated scf accuracy    <      55.96754605 Ry

     iteration #  5     ecut=    80.00 Ry     beta= 0.70
     Davidson diagonalization with overlap
     ethr =  8.56E-04,  avg # of iterations =  6.0

     negative rho (up, down):  1.608E-06 0.000E+00

     Adding external electric field

     Computed dipole along edir(3) : 
        Dipole                1.2978 Ry au,          3.2988 Debye
        Dipole field          0.0011 Ry au, 

        E field amplitude [Ha a.u.]: -2.0000E-03
        Potential amp.       -0.3692 Ry
        Total length         60.4102 bohr


     total cpu time spent up to now is      291.5 secs

     total energy              =   -4146.61554584 Ry
     estimated scf accuracy    <       1.16664677 Ry

     iteration #  6     ecut=    80.00 Ry     beta= 0.70
     Davidson diagonalization with overlap
     ethr =  3.47E-04,  avg # of iterations =  3.0

     negative rho (up, down):  3.698E-08 0.000E+00

     Adding external electric field

     Computed dipole along edir(3) : 
        Dipole                1.2354 Ry au,          3.1400 Debye
        Dipole field          0.0010 Ry au, 

        E field amplitude [Ha a.u.]: -2.0000E-03
        Potential amp.       -0.3631 Ry
        Total length         60.4102 bohr


     total cpu time spent up to now is      319.6 secs

     total energy              =   -4146.62808052 Ry
     estimated scf accuracy    <       0.34023381 Ry

     iteration #  7     ecut=    80.00 Ry     beta= 0.70
     Davidson diagonalization with overlap
     ethr =  1.01E-04,  avg # of iterations = 12.0

     Adding external electric field

     Computed dipole along edir(3) : 
        Dipole                1.2057 Ry au,          3.0647 Debye
        Dipole field          0.0010 Ry au, 

        E field amplitude [Ha a.u.]: -2.0000E-03
        Potential amp.       -0.3602 Ry
        Total length         60.4102 bohr


     total cpu time spent up to now is      355.8 secs

     total energy              =   -4146.63055382 Ry
     estimated scf accuracy    <       0.14324379 Ry

     iteration #  8     ecut=    80.00 Ry     beta= 0.70
     Davidson diagonalization with overlap
     ethr =  4.26E-05,  avg # of iterations =  7.2

     Adding external electric field

     Computed dipole along edir(3) : 
        Dipole                0.9834 Ry au,          2.4995 Debye
        Dipole field          0.0008 Ry au, 

        E field amplitude [Ha a.u.]: -2.0000E-03
        Potential amp.       -0.3383 Ry
        Total length         60.4102 bohr


     total cpu time spent up to now is      389.6 secs

     total energy              =   -4146.62714459 Ry
     estimated scf accuracy    <       0.10950486 Ry

     iteration #  9     ecut=    80.00 Ry     beta= 0.70
     Davidson diagonalization with overlap
     ethr =  3.26E-05,  avg # of iterations =  2.0

     negative rho (up, down):  1.167E-08 0.000E+00

     Adding external electric field

     Computed dipole along edir(3) : 
        Dipole                0.7367 Ry au,          1.8725 Debye
        Dipole field          0.0006 Ry au, 

        E field amplitude [Ha a.u.]: -2.0000E-03
        Potential amp.       -0.3141 Ry
        Total length         60.4102 bohr


     total cpu time spent up to now is      417.0 secs

     total energy              =   -4146.62140819 Ry
     estimated scf accuracy    <       0.06820855 Ry

     iteration # 10     ecut=    80.00 Ry     beta= 0.70
     Davidson diagonalization with overlap
     ethr =  2.03E-05,  avg # of iterations =  2.4

     negative rho (up, down):  1.850E-08 0.000E+00

     Adding external electric field

     Computed dipole along edir(3) : 
        Dipole                0.6812 Ry au,          1.7313 Debye
        Dipole field          0.0006 Ry au, 

        E field amplitude [Ha a.u.]: -2.0000E-03
        Potential amp.       -0.3086 Ry
        Total length         60.4102 bohr


     total cpu time spent up to now is      444.7 secs

     total energy              =   -4146.62068317 Ry
     estimated scf accuracy    <       0.04508740 Ry

     iteration # 11     ecut=    80.00 Ry     beta= 0.70
     Davidson diagonalization with overlap
     ethr =  1.34E-05,  avg # of iterations =  1.3

     negative rho (up, down):  6.941E-06 0.000E+00

     Adding external electric field

     Computed dipole along edir(3) : 
        Dipole               -1.3012 Ry au,         -3.3074 Debye
        Dipole field         -0.0011 Ry au, 

        E field amplitude [Ha a.u.]: -2.0000E-03
        Potential amp.       -0.1137 Ry
        Total length         60.4102 bohr


     total cpu time spent up to now is      470.7 secs

     total energy              =   -4146.59850586 Ry
     estimated scf accuracy    <       0.04255827 Ry

     iteration # 12     ecut=    80.00 Ry     beta= 0.70
     Davidson diagonalization with overlap
     ethr =  1.27E-05,  avg # of iterations = 13.8

     negative rho (up, down):  4.147E-06 0.000E+00

     Adding external electric field

     Computed dipole along edir(3) : 
        Dipole               -1.2888 Ry au,         -3.2758 Debye
        Dipole field         -0.0010 Ry au, 

        E field amplitude [Ha a.u.]: -2.0000E-03
        Potential amp.       -0.1149 Ry
        Total length         60.4102 bohr


     total cpu time spent up to now is      509.4 secs

     total energy              =   -4146.60508349 Ry
     estimated scf accuracy    <       0.01802911 Ry

     iteration # 13     ecut=    80.00 Ry     beta= 0.70
     Davidson diagonalization with overlap
     ethr =  5.37E-06,  avg # of iterations =  2.1

     negative rho (up, down):  1.253E-08 0.000E+00

     Adding external electric field

     Computed dipole along edir(3) : 
        Dipole               -1.2571 Ry au,         -3.1952 Debye
        Dipole field         -0.0010 Ry au, 

        E field amplitude [Ha a.u.]: -2.0000E-03
        Potential amp.       -0.1181 Ry
        Total length         60.4102 bohr


     total cpu time spent up to now is      536.1 secs

     total energy              =   -4146.60292177 Ry
     estimated scf accuracy    <       0.01055328 Ry

     iteration # 14     ecut=    80.00 Ry     beta= 0.70
     Davidson diagonalization with overlap
     ethr =  3.14E-06,  avg # of iterations = 13.5

     negative rho (up, down):  1.542E-07 0.000E+00

     Adding external electric field

     Computed dipole along edir(3) : 
        Dipole               -1.2863 Ry au,         -3.2693 Debye
        Dipole field         -0.0010 Ry au, 

        E field amplitude [Ha a.u.]: -2.0000E-03
        Potential amp.       -0.1152 Ry
        Total length         60.4102 bohr


     total cpu time spent up to now is      571.3 secs

     total energy              =   -4146.60426688 Ry
     estimated scf accuracy    <       0.02926086 Ry

     iteration # 15     ecut=    80.00 Ry     beta= 0.70
     Davidson diagonalization with overlap
     ethr =  3.14E-06,  avg # of iterations = 10.0

     negative rho (up, down):  5.469E-07 0.000E+00

     Adding external electric field

     Computed dipole along edir(3) : 
        Dipole               -1.2561 Ry au,         -3.1927 Debye
        Dipole field         -0.0010 Ry au, 

        E field amplitude [Ha a.u.]: -2.0000E-03
        Potential amp.       -0.1181 Ry
        Total length         60.4102 bohr


     total cpu time spent up to now is      603.0 secs

     total energy              =   -4146.60481763 Ry
     estimated scf accuracy    <       0.00146359 Ry

     iteration # 16     ecut=    80.00 Ry     beta= 0.70
     Davidson diagonalization with overlap
     ethr =  4.36E-07,  avg # of iterations =  8.9

     negative rho (up, down):  8.736E-05 0.000E+00

     Adding external electric field

     Computed dipole along edir(3) : 
        Dipole               -1.2973 Ry au,         -3.2975 Debye
        Dipole field         -0.0011 Ry au, 

        E field amplitude [Ha a.u.]: -2.0000E-03
        Potential amp.       -0.1141 Ry
        Total length         60.4102 bohr


     total cpu time spent up to now is      634.5 secs

     total energy              =   -4146.60437642 Ry
     estimated scf accuracy    <       0.03380893 Ry

     iteration # 17     ecut=    80.00 Ry     beta= 0.70
     Davidson diagonalization with overlap
     ethr =  4.36E-07,  avg # of iterations =  3.2

     negative rho (up, down):  5.111E-08 0.000E+00

     Adding external electric field

     Computed dipole along edir(3) : 
        Dipole               -1.3024 Ry au,         -3.3104 Debye
        Dipole field         -0.0011 Ry au, 

        E field amplitude [Ha a.u.]: -2.0000E-03
        Potential amp.       -0.1136 Ry
        Total length         60.4102 bohr


     total cpu time spent up to now is      663.1 secs

     total energy              =   -4146.60505713 Ry
     estimated scf accuracy    <       0.00028113 Ry

     iteration # 18     ecut=    80.00 Ry     beta= 0.70
     Davidson diagonalization with overlap
     ethr =  8.37E-08,  avg # of iterations =  2.0

     negative rho (up, down):  3.971E-08 0.000E+00

     Adding external electric field

     Computed dipole along edir(3) : 
        Dipole               -1.3008 Ry au,         -3.3062 Debye
        Dipole field         -0.0011 Ry au, 

        E field amplitude [Ha a.u.]: -2.0000E-03
        Potential amp.       -0.1138 Ry
        Total length         60.4102 bohr


     total cpu time spent up to now is      689.9 secs

     total energy              =   -4146.60507513 Ry
     estimated scf accuracy    <       0.00010790 Ry

     iteration # 19     ecut=    80.00 Ry     beta= 0.70
     Davidson diagonalization with overlap
     ethr =  3.21E-08,  avg # of iterations =  1.9

     negative rho (up, down):  1.270E-05 0.000E+00

     Adding external electric field

     Computed dipole along edir(3) : 
        Dipole               -1.2989 Ry au,         -3.3016 Debye
        Dipole field         -0.0011 Ry au, 

        E field amplitude [Ha a.u.]: -2.0000E-03
        Potential amp.       -0.1139 Ry
        Total length         60.4102 bohr


     total cpu time spent up to now is      717.4 secs

     total energy              =   -4146.60507908 Ry
     estimated scf accuracy    <       0.00012360 Ry

     iteration # 20     ecut=    80.00 Ry     beta= 0.70
     Davidson diagonalization with overlap
     ethr =  3.21E-08,  avg # of iterations =  1.0

     negative rho (up, down):  1.137E-08 0.000E+00

     Adding external electric field

     Computed dipole along edir(3) : 
        Dipole               -1.2979 Ry au,         -3.2988 Debye
        Dipole field         -0.0011 Ry au, 

        E field amplitude [Ha a.u.]: -2.0000E-03
        Potential amp.       -0.1140 Ry
        Total length         60.4102 bohr


     total cpu time spent up to now is      742.0 secs

     total energy              =   -4146.60507652 Ry
     estimated scf accuracy    <       0.00009808 Ry

     iteration # 21     ecut=    80.00 Ry     beta= 0.70
     Davidson diagonalization with overlap
     ethr =  2.92E-08,  avg # of iterations =  1.0

     negative rho (up, down):  1.535E-05 0.000E+00

     Adding external electric field

     Computed dipole along edir(3) : 
        Dipole               -1.2975 Ry au,         -3.2979 Debye
        Dipole field         -0.0011 Ry au, 

        E field amplitude [Ha a.u.]: -2.0000E-03
        Potential amp.       -0.1141 Ry
        Total length         60.4102 bohr


     total cpu time spent up to now is      766.5 secs

     total energy              =   -4146.60507910 Ry
     estimated scf accuracy    <       0.00004980 Ry

     iteration # 22     ecut=    80.00 Ry     beta= 0.70
     Davidson diagonalization with overlap
     ethr =  1.48E-08,  avg # of iterations =  1.0

     Adding external electric field

     Computed dipole along edir(3) : 
        Dipole               -1.2968 Ry au,         -3.2961 Debye
        Dipole field         -0.0011 Ry au, 

        E field amplitude [Ha a.u.]: -2.0000E-03
        Potential amp.       -0.1142 Ry
        Total length         60.4102 bohr


     total cpu time spent up to now is      791.0 secs

     total energy              =   -4146.60507942 Ry
     estimated scf accuracy    <       0.00003572 Ry

     iteration # 23     ecut=    80.00 Ry     beta= 0.70
     Davidson diagonalization with overlap
     ethr =  1.06E-08,  avg # of iterations =  1.0

     Adding external electric field

     Computed dipole along edir(3) : 
        Dipole               -1.2956 Ry au,         -3.2931 Debye
        Dipole field         -0.0011 Ry au, 

        E field amplitude [Ha a.u.]: -2.0000E-03
        Potential amp.       -0.1143 Ry
        Total length         60.4102 bohr


     total cpu time spent up to now is      815.5 secs

     total energy              =   -4146.60507890 Ry
     estimated scf accuracy    <       0.00001739 Ry

     iteration # 24     ecut=    80.00 Ry     beta= 0.70
     Davidson diagonalization with overlap
     ethr =  5.18E-09,  avg # of iterations =  1.4

     Adding external electric field

     Computed dipole along edir(3) : 
        Dipole               -1.2969 Ry au,         -3.2964 Debye
        Dipole field         -0.0011 Ry au, 

        E field amplitude [Ha a.u.]: -2.0000E-03
        Potential amp.       -0.1141 Ry
        Total length         60.4102 bohr


     total cpu time spent up to now is      841.6 secs

     total energy              =   -4146.60507434 Ry
     estimated scf accuracy    <       0.00047455 Ry

     iteration # 25     ecut=    80.00 Ry     beta= 0.70
     Davidson diagonalization with overlap
     ethr =  5.18E-09,  avg # of iterations =  1.1

     Adding external electric field

     Computed dipole along edir(3) : 
        Dipole               -1.2955 Ry au,         -3.2930 Debye
        Dipole field         -0.0011 Ry au, 

        E field amplitude [Ha a.u.]: -2.0000E-03
        Potential amp.       -0.1143 Ry
        Total length         60.4102 bohr


     total cpu time spent up to now is      866.9 secs

     total energy              =   -4146.60507900 Ry
     estimated scf accuracy    <       0.00001355 Ry

     iteration # 26     ecut=    80.00 Ry     beta= 0.70
     Davidson diagonalization with overlap
     ethr =  4.03E-09,  avg # of iterations =  1.1

     Adding external electric field

     Computed dipole along edir(3) : 
        Dipole               -1.2961 Ry au,         -3.2943 Debye
        Dipole field         -0.0011 Ry au, 

        E field amplitude [Ha a.u.]: -2.0000E-03
        Potential amp.       -0.1142 Ry
        Total length         60.4102 bohr


     total cpu time spent up to now is      892.2 secs

     total energy              =   -4146.60507735 Ry
     estimated scf accuracy    <       0.00022480 Ry

     iteration # 27     ecut=    80.00 Ry     beta= 0.70
     Davidson diagonalization with overlap
     ethr =  4.03E-09,  avg # of iterations =  1.1

     Adding external electric field

     Computed dipole along edir(3) : 
        Dipole               -1.2964 Ry au,         -3.2950 Debye
        Dipole field         -0.0011 Ry au, 

        E field amplitude [Ha a.u.]: -2.0000E-03
        Potential amp.       -0.1142 Ry
        Total length         60.4102 bohr


     total cpu time spent up to now is      917.9 secs

     total energy              =   -4146.60507928 Ry
     estimated scf accuracy    <       0.00001103 Ry

     iteration # 28     ecut=    80.00 Ry     beta= 0.70
     Davidson diagonalization with overlap
     ethr =  3.28E-09,  avg # of iterations =  1.0

     Adding external electric field

     Computed dipole along edir(3) : 
        Dipole               -1.2963 Ry au,         -3.2949 Debye
        Dipole field         -0.0011 Ry au, 

        E field amplitude [Ha a.u.]: -2.0000E-03
        Potential amp.       -0.1142 Ry
        Total length         60.4102 bohr


     total cpu time spent up to now is      942.4 secs

     total energy              =   -4146.60507947 Ry
     estimated scf accuracy    <       0.00000696 Ry

     iteration # 29     ecut=    80.00 Ry     beta= 0.70
     Davidson diagonalization with overlap
     ethr =  2.07E-09,  avg # of iterations =  1.0

     Adding external electric field

     Computed dipole along edir(3) : 
        Dipole               -1.2963 Ry au,         -3.2949 Debye
        Dipole field         -0.0011 Ry au, 

        E field amplitude [Ha a.u.]: -2.0000E-03
        Potential amp.       -0.1142 Ry
        Total length         60.4102 bohr


     total cpu time spent up to now is      967.1 secs

     total energy              =   -4146.60507946 Ry
     estimated scf accuracy    <       0.00000561 Ry

     iteration # 30     ecut=    80.00 Ry     beta= 0.70
     Davidson diagonalization with overlap
     ethr =  1.67E-09,  avg # of iterations =  1.0

     Adding external electric field

     Computed dipole along edir(3) : 
        Dipole               -1.2963 Ry au,         -3.2948 Debye
        Dipole field         -0.0011 Ry au, 

        E field amplitude [Ha a.u.]: -2.0000E-03
        Potential amp.       -0.1142 Ry
        Total length         60.4102 bohr


     total cpu time spent up to now is      991.8 secs

     total energy              =   -4146.60507944 Ry
     estimated scf accuracy    <       0.00000495 Ry

     iteration # 31     ecut=    80.00 Ry     beta= 0.70
     Davidson diagonalization with overlap
     ethr =  1.47E-09,  avg # of iterations =  1.0

     Adding external electric field

     Computed dipole along edir(3) : 
        Dipole               -1.2962 Ry au,         -3.2946 Debye
        Dipole field         -0.0011 Ry au, 

        E field amplitude [Ha a.u.]: -2.0000E-03
        Potential amp.       -0.1142 Ry
        Total length         60.4102 bohr


     total cpu time spent up to now is     1016.3 secs

     total energy              =   -4146.60507943 Ry
     estimated scf accuracy    <       0.00000448 Ry

     iteration # 32     ecut=    80.00 Ry     beta= 0.70
     Davidson diagonalization with overlap
     ethr =  1.33E-09,  avg # of iterations =  1.0

     Adding external electric field

     Computed dipole along edir(3) : 
        Dipole               -1.2962 Ry au,         -3.2945 Debye
        Dipole field         -0.0011 Ry au, 

        E field amplitude [Ha a.u.]: -2.0000E-03
        Potential amp.       -0.1142 Ry
        Total length         60.4102 bohr


     total cpu time spent up to now is     1040.8 secs

     total energy              =   -4146.60507942 Ry
     estimated scf accuracy    <       0.00000409 Ry

     iteration # 33     ecut=    80.00 Ry     beta= 0.70
     Davidson diagonalization with overlap
     ethr =  1.22E-09,  avg # of iterations =  1.0

     negative rho (up, down):  4.332E-07 0.000E+00

     Adding external electric field

     Computed dipole along edir(3) : 
        Dipole               -1.2955 Ry au,         -3.2928 Debye
        Dipole field         -0.0011 Ry au, 

        E field amplitude [Ha a.u.]: -2.0000E-03
        Potential amp.       -0.1143 Ry
        Total length         60.4102 bohr


     total cpu time spent up to now is     1065.2 secs

     total energy              =   -4146.60507924 Ry
     estimated scf accuracy    <       0.00000370 Ry

     iteration # 34     ecut=    80.00 Ry     beta= 0.70
     Davidson diagonalization with overlap
     ethr =  1.10E-09,  avg # of iterations =  1.0

     negative rho (up, down):  2.971E-08 0.000E+00

     Adding external electric field

     Computed dipole along edir(3) : 
        Dipole               -1.2960 Ry au,         -3.2942 Debye
        Dipole field         -0.0011 Ry au, 

        E field amplitude [Ha a.u.]: -2.0000E-03
        Potential amp.       -0.1142 Ry
        Total length         60.4102 bohr


     total cpu time spent up to now is     1089.8 secs

     total energy              =   -4146.60507820 Ry
     estimated scf accuracy    <       0.00054344 Ry

     iteration # 35     ecut=    80.00 Ry     beta= 0.70
     Davidson diagonalization with overlap
     ethr =  1.10E-09,  avg # of iterations =  1.0

     Adding external electric field

     Computed dipole along edir(3) : 
        Dipole               -1.2961 Ry au,         -3.2943 Debye
        Dipole field         -0.0011 Ry au, 

        E field amplitude [Ha a.u.]: -2.0000E-03
        Potential amp.       -0.1142 Ry
        Total length         60.4102 bohr


     total cpu time spent up to now is     1114.6 secs

     total energy              =   -4146.60507939 Ry
     estimated scf accuracy    <       0.00000190 Ry

     iteration # 36     ecut=    80.00 Ry     beta= 0.70
     Davidson diagonalization with overlap
     ethr =  5.65E-10,  avg # of iterations =  1.0

     Adding external electric field

     Computed dipole along edir(3) : 
        Dipole               -1.2961 Ry au,         -3.2943 Debye
        Dipole field         -0.0011 Ry au, 

        E field amplitude [Ha a.u.]: -2.0000E-03
        Potential amp.       -0.1142 Ry
        Total length         60.4102 bohr


     total cpu time spent up to now is     1139.1 secs

     total energy              =   -4146.60507939 Ry
     estimated scf accuracy    <       0.00000231 Ry

     iteration # 37     ecut=    80.00 Ry     beta= 0.70
     Davidson diagonalization with overlap
     ethr =  5.65E-10,  avg # of iterations =  1.0

     Adding external electric field

     Computed dipole along edir(3) : 
        Dipole               -1.2961 Ry au,         -3.2943 Debye
        Dipole field         -0.0011 Ry au, 

        E field amplitude [Ha a.u.]: -2.0000E-03
        Potential amp.       -0.1142 Ry
        Total length         60.4102 bohr


     total cpu time spent up to now is     1163.6 secs

     total energy              =   -4146.60507939 Ry
     estimated scf accuracy    <       0.00000250 Ry

     iteration # 38     ecut=    80.00 Ry     beta= 0.70
     Davidson diagonalization with overlap
     ethr =  5.65E-10,  avg # of iterations =  1.0

     Adding external electric field

     Computed dipole along edir(3) : 
        Dipole               -1.2960 Ry au,         -3.2942 Debye
        Dipole field         -0.0011 Ry au, 

        E field amplitude [Ha a.u.]: -2.0000E-03
        Potential amp.       -0.1142 Ry
        Total length         60.4102 bohr


     total cpu time spent up to now is     1188.0 secs

     total energy              =   -4146.60507938 Ry
     estimated scf accuracy    <       0.00000229 Ry

     iteration # 39     ecut=    80.00 Ry     beta= 0.70
     Davidson diagonalization with overlap
     ethr =  5.65E-10,  avg # of iterations =  1.0

     Adding external electric field

     Computed dipole along edir(3) : 
        Dipole               -1.2960 Ry au,         -3.2942 Debye
        Dipole field         -0.0011 Ry au, 

        E field amplitude [Ha a.u.]: -2.0000E-03
        Potential amp.       -0.1142 Ry
        Total length         60.4102 bohr


     total cpu time spent up to now is     1212.5 secs

     total energy              =   -4146.60507938 Ry
     estimated scf accuracy    <       0.00000211 Ry

     iteration # 40     ecut=    80.00 Ry     beta= 0.70
     Davidson diagonalization with overlap
     ethr =  5.65E-10,  avg # of iterations =  1.0

     Adding external electric field

     Computed dipole along edir(3) : 
        Dipole               -1.2960 Ry au,         -3.2941 Debye
        Dipole field         -0.0011 Ry au, 

        E field amplitude [Ha a.u.]: -2.0000E-03
        Potential amp.       -0.1142 Ry
        Total length         60.4102 bohr


     total cpu time spent up to now is     1237.0 secs

     total energy              =   -4146.60507938 Ry
     estimated scf accuracy    <       0.00000160 Ry

     iteration # 41     ecut=    80.00 Ry     beta= 0.70
     Davidson diagonalization with overlap
     ethr =  4.77E-10,  avg # of iterations =  1.0

     Adding external electric field

     Computed dipole along edir(3) : 
        Dipole               -1.2960 Ry au,         -3.2941 Debye
        Dipole field         -0.0011 Ry au, 

        E field amplitude [Ha a.u.]: -2.0000E-03
        Potential amp.       -0.1142 Ry
        Total length         60.4102 bohr


     total cpu time spent up to now is     1261.5 secs

     total energy              =   -4146.60507938 Ry
     estimated scf accuracy    <       0.00000142 Ry

     iteration # 42     ecut=    80.00 Ry     beta= 0.70
     Davidson diagonalization with overlap
     ethr =  4.24E-10,  avg # of iterations =  1.0

     Adding external electric field

     Computed dipole along edir(3) : 
        Dipole               -1.2960 Ry au,         -3.2941 Debye
        Dipole field         -0.0011 Ry au, 

        E field amplitude [Ha a.u.]: -2.0000E-03
        Potential amp.       -0.1142 Ry
        Total length         60.4102 bohr


     total cpu time spent up to now is     1286.0 secs

     total energy              =   -4146.60507938 Ry
     estimated scf accuracy    <       0.00000154 Ry

     iteration # 43     ecut=    80.00 Ry     beta= 0.70
     Davidson diagonalization with overlap
     ethr =  4.24E-10,  avg # of iterations =  1.0

     Adding external electric field

     Computed dipole along edir(3) : 
        Dipole               -1.2958 Ry au,         -3.2936 Debye
        Dipole field         -0.0011 Ry au, 

        E field amplitude [Ha a.u.]: -2.0000E-03
        Potential amp.       -0.1142 Ry
        Total length         60.4102 bohr


     total cpu time spent up to now is     1310.5 secs

     total energy              =   -4146.60507934 Ry
     estimated scf accuracy    <       0.00000151 Ry

     iteration # 44     ecut=    80.00 Ry     beta= 0.70
     Davidson diagonalization with overlap
     ethr =  4.24E-10,  avg # of iterations =  1.0

     Adding external electric field

     Computed dipole along edir(3) : 
        Dipole               -1.2959 Ry au,         -3.2939 Debye
        Dipole field         -0.0011 Ry au, 

        E field amplitude [Ha a.u.]: -2.0000E-03
        Potential amp.       -0.1142 Ry
        Total length         60.4102 bohr


     total cpu time spent up to now is     1334.9 secs

     total energy              =   -4146.60507931 Ry
     estimated scf accuracy    <       0.00002508 Ry

     iteration # 45     ecut=    80.00 Ry     beta= 0.70
     Davidson diagonalization with overlap
     ethr =  4.24E-10,  avg # of iterations =  1.0

     Adding external electric field

     Computed dipole along edir(3) : 
        Dipole               -1.2959 Ry au,         -3.2939 Debye
        Dipole field         -0.0011 Ry au, 

        E field amplitude [Ha a.u.]: -2.0000E-03
        Potential amp.       -0.1142 Ry
        Total length         60.4102 bohr


     total cpu time spent up to now is     1359.4 secs

     total energy              =   -4146.60507937 Ry
     estimated scf accuracy    <          8.2E-09 Ry

     iteration # 46     ecut=    80.00 Ry     beta= 0.70
     Davidson diagonalization with overlap
     ethr =  2.45E-12,  avg # of iterations =  1.0

     Adding external electric field

     Computed dipole along edir(3) : 
        Dipole               -1.2959 Ry au,         -3.2939 Debye
        Dipole field         -0.0011 Ry au, 

        E field amplitude [Ha a.u.]: -2.0000E-03
        Potential amp.       -0.1142 Ry
        Total length         60.4102 bohr


     total cpu time spent up to now is     1383.9 secs

     total energy              =   -4146.60507937 Ry
     estimated scf accuracy    <       0.00000003 Ry

     iteration # 47     ecut=    80.00 Ry     beta= 0.70
     Davidson diagonalization with overlap
     ethr =  2.45E-12,  avg # of iterations =  1.0

     Adding external electric field

     Computed dipole along edir(3) : 
        Dipole               -1.2959 Ry au,         -3.2939 Debye
        Dipole field         -0.0011 Ry au, 

        E field amplitude [Ha a.u.]: -2.0000E-03
        Potential amp.       -0.1142 Ry
        Total length         60.4102 bohr


     total cpu time spent up to now is     1408.4 secs

     total energy              =   -4146.60507937 Ry
     estimated scf accuracy    <          6.6E-09 Ry

     iteration # 48     ecut=    80.00 Ry     beta= 0.70
     Davidson diagonalization with overlap
     ethr =  1.96E-12,  avg # of iterations =  1.0

     Adding external electric field

     Computed dipole along edir(3) : 
        Dipole               -1.2956 Ry au,         -3.2931 Debye
        Dipole field         -0.0011 Ry au, 

        E field amplitude [Ha a.u.]: -2.0000E-03
        Potential amp.       -0.1143 Ry
        Total length         60.4102 bohr


     total cpu time spent up to now is     1432.9 secs

     End of self-consistent calculation

          k = 0.0500 0.0866 0.0000 (186449 PWs)   bands (ev):

   -37.2326 -37.2326 -37.2326 -37.2326 -37.2326 -37.2319 -37.2319 -37.2319
   -37.0439 -37.0438 -37.0438 -37.0437 -37.0427 -37.0427 -37.0425 -37.0425
   -36.9843 -36.9839 -36.9839 -36.9839 -36.7175 -36.7170 -36.7170 -36.7170
   -36.7060 -36.7059 -36.7059 -36.7056 -36.7056 -36.7056 -36.7055 -36.7055
   -36.6843 -36.6843 -36.6843 -36.6843 -36.6843 -36.6832 -36.6832 -36.6832
   -36.5868 -36.5868 -36.5868 -36.5867 -36.5867 -36.5856 -36.5856 -36.5856
   -36.5449 -36.5448 -36.5448 -36.5445 -36.5445 -36.5445 -36.5444 -36.5444
   -36.5410 -36.5404 -36.5404 -36.5404 -16.6438 -16.6438 -16.6435 -16.6422
   -16.6419 -16.6280 -16.6280 -16.6280 -16.5130 -16.5103 -16.5103 -16.5103
   -16.5027 -16.5017 -16.5017 -16.4970 -16.4970 -16.4962 -16.4957 -16.4945
   -16.3223 -16.3222 -16.3222 -16.3082 -16.2747 -16.2746 -16.2746 -16.2651
   -16.2643 -16.2455 -16.2455 -16.2454 -16.2184 -16.2184 -16.2183 -16.2086
   -16.2083 -16.2025 -16.2025 -16.2025 -16.0501 -16.0498 -16.0498 -16.0070
   -15.9896 -15.9892 -15.9654 -15.9653 -15.9653 -15.9641 -15.9641 -15.9636
   -15.9285 -15.9284 -15.9284 -15.9157 -15.9156 -15.9156 -15.9155 -15.9153
   -13.5681 -12.8642 -12.1683 -12.1683 -12.1179 -11.8317 -11.8317 -11.8131
   -11.5083 -11.1851 -11.1847 -11.1847  -8.0138  -7.8377  -7.8209  -7.8209
    -7.4941  -7.4420  -7.4420  -6.5236  -6.5236  -6.5049  -6.1757  -4.3756
    -4.3703  -4.3703  -4.0921  -3.7903  -3.7217  -3.7217  -3.3906  -3.2566
    -3.2566  -3.0487  -3.0373  -3.0373  -2.9533  -2.9533  -2.9131  -2.5640
    -2.3953  -2.2689  -2.2689  -2.2592  -2.1000  -1.9964  -1.8836  -1.7490
    -1.7010  -1.7010  -1.0084  -0.9527  -0.9527  -0.4987  -0.3870  -0.3138
    -0.1138   0.3731   0.3731   0.4838   0.6278   0.6278   0.7234   1.3733
     1.5001   1.5001   1.6291   1.6674   1.6858   1.6858   2.1946   2.3756
     2.6901   2.7380   2.7380   2.7744   3.1026   3.1933   3.2360   3.3024
     3.3860   3.4510

          k = 0.0500 0.2021 0.0000 (186558 PWs)   bands (ev):

   -37.2326 -37.2326 -37.2326 -37.2326 -37.2325 -37.2319 -37.2319 -37.2319
   -37.0439 -37.0438 -37.0438 -37.0437 -37.0427 -37.0427 -37.0426 -37.0425
   -36.9843 -36.9839 -36.9839 -36.9839 -36.7175 -36.7170 -36.7170 -36.7170
   -36.7060 -36.7059 -36.7059 -36.7056 -36.7056 -36.7056 -36.7056 -36.7055
   -36.6843 -36.6843 -36.6843 -36.6842 -36.6842 -36.6833 -36.6833 -36.6833
   -36.5868 -36.5867 -36.5867 -36.5867 -36.5866 -36.5857 -36.5857 -36.5856
   -36.5449 -36.5448 -36.5448 -36.5445 -36.5445 -36.5445 -36.5445 -36.5444
   -36.5410 -36.5404 -36.5404 -36.5404 -16.6437 -16.6432 -16.6427 -16.6423
   -16.6410 -16.6289 -16.6287 -16.6287 -16.5128 -16.5104 -16.5103 -16.5103
   -16.5025 -16.5015 -16.5013 -16.4971 -16.4969 -16.4965 -16.4959 -16.4949
   -16.3212 -16.3210 -16.3208 -16.3083 -16.2752 -16.2750 -16.2746 -16.2666
   -16.2629 -16.2464 -16.2461 -16.2459 -16.2178 -16.2178 -16.2177 -16.2093
   -16.2082 -16.2034 -16.2032 -16.2031 -16.0492 -16.0485 -16.0477 -16.0108
   -15.9880 -15.9866 -15.9668 -15.9666 -15.9663 -15.9654 -15.9640 -15.9635
   -15.9280 -15.9279 -15.9277 -15.9165 -15.9164 -15.9161 -15.9157 -15.9154
   -13.5101 -12.8130 -12.3223 -12.2100 -12.1009 -11.9001 -11.8418 -11.7975
   -11.4835 -11.1853 -11.1816 -11.1812  -7.9664  -7.8154  -7.7753  -7.7268
    -7.4561  -7.3437  -7.2273  -6.5616  -6.5320  -6.4941  -6.1755  -4.4251
    -4.3852  -4.3850  -4.1854  -3.9463  -3.8490  -3.7303  -3.6651  -3.5241
    -3.2383  -3.0428  -3.0043  -2.9912  -2.9722  -2.8488  -2.8090  -2.8017
    -2.5634  -2.4242  -2.2964  -2.2905  -2.2767  -2.0525  -1.9763  -1.6891
    -1.5845  -1.4746  -1.1763  -1.0606  -0.9195  -0.7177  -0.4231   0.1214
     0.3337   0.4083   0.6651   0.6779   0.8197   0.8979   0.9830   1.2125
     1.2613   1.5551   1.6768   1.7254   1.7685   1.8099   1.8673   2.3825
     2.7030   2.7601   2.8573   2.9289   2.9504   3.1056   3.2474   3.2931
     3.3122   3.3252

          k = 0.0500 0.3175 0.0000 (186601 PWs)   bands (ev):

   -37.2326 -37.2326 -37.2325 -37.2325 -37.2325 -37.2320 -37.2319 -37.2319
   -37.0439 -37.0438 -37.0438 -37.0437 -37.0426 -37.0426 -37.0426 -37.0425
   -36.9842 -36.9839 -36.9839 -36.9839 -36.7175 -36.7171 -36.7170 -36.7170
   -36.7060 -36.7059 -36.7059 -36.7056 -36.7056 -36.7056 -36.7056 -36.7056
   -36.6843 -36.6843 -36.6842 -36.6841 -36.6841 -36.6834 -36.6834 -36.6834
   -36.5868 -36.5867 -36.5867 -36.5866 -36.5865 -36.5858 -36.5857 -36.5857
   -36.5448 -36.5448 -36.5448 -36.5445 -36.5445 -36.5445 -36.5445 -36.5445
   -36.5409 -36.5405 -36.5404 -36.5404 -16.6435 -16.6424 -16.6422 -16.6414
   -16.6396 -16.6303 -16.6298 -16.6298 -16.5124 -16.5106 -16.5103 -16.5103
   -16.5022 -16.5013 -16.5007 -16.4973 -16.4969 -16.4967 -16.4963 -16.4954
   -16.3196 -16.3192 -16.3184 -16.3086 -16.2760 -16.2757 -16.2747 -16.2688
   -16.2606 -16.2479 -16.2469 -16.2466 -16.2169 -16.2168 -16.2166 -16.2104
   -16.2080 -16.2047 -16.2045 -16.2041 -16.0479 -16.0467 -16.0439 -16.0163
   -15.9854 -15.9832 -15.9690 -15.9688 -15.9676 -15.9675 -15.9638 -15.9634
   -15.9272 -15.9271 -15.9266 -15.9180 -15.9174 -15.9169 -15.9158 -15.9156
   -13.4075 -12.7230 -12.5338 -12.2485 -12.0959 -12.0272 -11.8509 -11.7816
   -11.4413 -11.2015 -11.1767 -11.1763  -7.8844  -7.7749  -7.7131  -7.5932
    -7.3775  -7.2207  -6.9604  -6.5323  -6.5009  -6.4867  -6.1932  -4.5476
    -4.4322  -4.4189  -4.4182  -4.1233  -4.0293  -4.0109  -3.8365  -3.5689
    -3.5625  -3.1703  -2.9248  -2.9026  -2.8717  -2.8576  -2.7140  -2.6992
    -2.6933  -2.6739  -2.3245  -2.3237  -2.2707  -2.1617  -2.0660  -1.5957
    -1.4429  -1.3531  -1.2082  -1.1274  -1.0490  -0.8620  -0.4823   0.4686
     0.4760   0.4791   0.7351   0.7486   0.7834   1.2262   1.3883   1.4527
     1.4650   1.6512   1.7034   1.8178   1.8682   1.9139   2.0019   2.3269
     2.5601   2.7039   2.9626   3.0007   3.0051   3.1412   3.1476   3.1733
     3.2654   3.4451

          k = 0.0500 0.4330 0.0000 (186662 PWs)   bands (ev):

   -37.2326 -37.2326 -37.2325 -37.2324 -37.2324 -37.2321 -37.2320 -37.2320
   -37.0439 -37.0438 -37.0438 -37.0437 -37.0426 -37.0426 -37.0426 -37.0425
   -36.9842 -36.9840 -36.9839 -36.9839 -36.7174 -36.7172 -36.7170 -36.7170
   -36.7059 -36.7059 -36.7058 -36.7057 -36.7056 -36.7056 -36.7056 -36.7056
   -36.6843 -36.6843 -36.6841 -36.6841 -36.6840 -36.6836 -36.6835 -36.6834
   -36.5867 -36.5867 -36.5866 -36.5865 -36.5864 -36.5859 -36.5858 -36.5858
   -36.5448 -36.5448 -36.5447 -36.5446 -36.5445 -36.5445 -36.5445 -36.5445
   -36.5408 -36.5406 -36.5404 -36.5404 -16.6433 -16.6426 -16.6410 -16.6400
   -16.6377 -16.6322 -16.6311 -16.6311 -16.5120 -16.5109 -16.5103 -16.5102
   -16.5017 -16.5010 -16.4998 -16.4975 -16.4974 -16.4970 -16.4964 -16.4958
   -16.3180 -16.3175 -16.3154 -16.3095 -16.2768 -16.2765 -16.2744 -16.2711
   -16.2577 -16.2502 -16.2476 -16.2473 -16.2156 -16.2156 -16.2153 -16.2118
   -16.2075 -16.2062 -16.2058 -16.2053 -16.0465 -16.0451 -16.0387 -16.0226
   -15.9819 -15.9794 -15.9722 -15.9705 -15.9704 -15.9689 -15.9637 -15.9633
   -15.9263 -15.9263 -15.9250 -15.9199 -15.9185 -15.9178 -15.9159 -15.9157
   -13.2634 -12.7617 -12.5984 -12.2765 -12.1900 -12.0971 -11.8579 -11.7696
   -11.3862 -11.2394 -11.1730 -11.1713  -7.7749  -7.7321  -7.6554  -7.5341
    -7.2926  -7.1085  -6.7508  -6.5255  -6.4829  -6.2621  -6.1693  -4.8698
    -4.6790  -4.4676  -4.4373  -4.4056  -4.1889  -4.0809  -4.0576  -4.0047
    -3.4154  -3.0906  -3.0263  -2.9004  -2.8230  -2.7945  -2.7549  -2.6045
    -2.6020  -2.5770  -2.3960  -2.3678  -2.3391  -2.1611  -2.1241  -1.6775
    -1.4855  -1.4089  -1.2963  -1.1502  -0.7911  -0.6934  -0.5618   0.0879
     0.4020   0.4176   0.5825   0.8416   1.0159   1.0702   1.6769   1.7828
     1.8190   1.8670   1.9705   1.9892   2.1633   2.1979   2.1988   2.3881
     2.5718   2.5864   2.7987   2.8624   3.1893   3.2156   3.3822   3.3895
     3.5950   3.6339

          k = 0.0500 0.5485 0.0000 (186672 PWs)   bands (ev):

   -37.2326 -37.2326 -37.2324 -37.2324 -37.2323 -37.2322 -37.2320 -37.2320
   -37.0439 -37.0439 -37.0437 -37.0437 -37.0426 -37.0426 -37.0426 -37.0426
   -36.9841 -36.9841 -36.9839 -36.9838 -36.7173 -36.7172 -36.7170 -36.7170
   -36.7059 -36.7059 -36.7058 -36.7057 -36.7056 -36.7056 -36.7056 -36.7056
   -36.6843 -36.6843 -36.6841 -36.6840 -36.6838 -36.6837 -36.6835 -36.6835
   -36.5867 -36.5867 -36.5865 -36.5864 -36.5862 -36.5861 -36.5859 -36.5859
   -36.5448 -36.5448 -36.5447 -36.5446 -36.5445 -36.5445 -36.5445 -36.5445
   -36.5407 -36.5407 -36.5404 -36.5404 -16.6430 -16.6429 -16.6402 -16.6391
   -16.6355 -16.6344 -16.6319 -16.6318 -16.5115 -16.5113 -16.5103 -16.5102
   -16.5013 -16.5011 -16.4988 -16.4980 -16.4979 -16.4974 -16.4961 -16.4961
   -16.3171 -16.3166 -16.3126 -16.3113 -16.2773 -16.2769 -16.2737 -16.2730
   -16.2545 -16.2530 -16.2480 -16.2476 -16.2149 -16.2145 -16.2141 -16.2133
   -16.2071 -16.2068 -16.2066 -16.2063 -16.0458 -16.0442 -16.0326 -16.0293
   -15.9780 -15.9760 -15.9756 -15.9738 -15.9715 -15.9696 -15.9637 -15.9633
   -15.9258 -15.9258 -15.9231 -15.9220 -15.9192 -15.9183 -15.9159 -15.9159
   -13.0829 -12.9812 -12.4460 -12.3625 -12.2894 -12.0987 -11.8613 -11.7640
   -11.3246 -11.2940 -11.1711 -11.1687  -7.7079  -7.6533  -7.6252  -7.5974
    -7.2443  -7.0488  -6.5237  -6.5198  -6.4821  -6.4164  -5.6737  -5.4039
    -4.7325  -4.5684  -4.4878  -4.3762  -4.3214  -4.2938  -4.1551  -4.0642
    -3.2310  -3.1302  -3.0626  -3.0576  -2.7424  -2.7181  -2.6125  -2.5622
    -2.5463  -2.5260  -2.4556  -2.3999  -2.3994  -2.3089  -1.8839  -1.7813
    -1.7395  -1.5751  -1.1733  -1.0297  -0.6993  -0.6528  -0.2204  -0.1434
     0.0188   0.1902   0.7373   0.8327   0.9669   1.0194   1.9371   1.9378
     1.9839   1.9883   2.0564   2.1025   2.1073   2.1414   2.4062   2.4805
     2.5906   2.6156   3.0118   3.3155   3.3218   3.3380   3.4526   3.6709
     3.7757   3.8850

          k = 0.0500-0.4907 0.0000 (186681 PWs)   bands (ev):

   -37.2326 -37.2326 -37.2324 -37.2324 -37.2323 -37.2321 -37.2320 -37.2320
   -37.0439 -37.0438 -37.0437 -37.0437 -37.0426 -37.0426 -37.0426 -37.0425
   -36.9841 -36.9840 -36.9839 -36.9838 -36.7173 -36.7172 -36.7170 -36.7170
   -36.7059 -36.7059 -36.7058 -36.7057 -36.7056 -36.7056 -36.7056 -36.7056
   -36.6843 -36.6843 -36.6841 -36.6840 -36.6839 -36.6836 -36.6835 -36.6835
   -36.5867 -36.5867 -36.5865 -36.5865 -36.5863 -36.5860 -36.5859 -36.5859
   -36.5448 -36.5448 -36.5447 -36.5446 -36.5446 -36.5445 -36.5445 -36.5445
   -36.5408 -36.5406 -36.5404 -36.5404 -16.6431 -16.6427 -16.6405 -16.6395
   -16.6366 -16.6333 -16.6316 -16.6316 -16.5117 -16.5111 -16.5103 -16.5102
   -16.5013 -16.5011 -16.4991 -16.4980 -16.4977 -16.4972 -16.4964 -16.4957
   -16.3174 -16.3169 -16.3140 -16.3103 -16.2771 -16.2768 -16.2741 -16.2722
   -16.2561 -16.2515 -16.2479 -16.2475 -16.2152 -16.2149 -16.2148 -16.2125
   -16.2072 -16.2068 -16.2063 -16.2058 -16.0461 -16.0445 -16.0358 -16.0260
   -15.9799 -15.9776 -15.9741 -15.9720 -15.9712 -15.9693 -15.9637 -15.9633
   -15.9260 -15.9259 -15.9241 -15.9210 -15.9190 -15.9181 -15.9159 -15.9158
   -13.1773 -12.8736 -12.5251 -12.2851 -12.2764 -12.0981 -11.8601 -11.7659
   -11.3557 -11.2652 -11.1718 -11.1696  -7.7164  -7.7141  -7.6357  -7.5542
    -7.2614  -7.0697  -6.6393  -6.5220  -6.4822  -6.3277  -5.9324  -5.1323
    -4.7170  -4.5094  -4.4835  -4.4214  -4.2684  -4.1698  -4.1344  -4.0626
    -3.3272  -3.0697  -3.0611  -3.0080  -2.7743  -2.7474  -2.6891  -2.5763
    -2.5651  -2.4921  -2.4336  -2.4325  -2.3877  -2.2279  -2.0126  -1.7432
    -1.5806  -1.5416  -1.2224  -1.0767  -0.7454  -0.6063  -0.4612  -0.0591
     0.2412   0.2672   0.6535   0.9045   0.9371   1.0482   1.8400   1.8587
     1.9242   1.9243   2.0714   2.0878   2.1210   2.1615   2.3819   2.4928
     2.5617   2.6140   2.8166   3.0366   3.2729   3.2934   3.4904   3.5643
     3.7023   3.7513

          k = 0.0500-0.3753 0.0000 (186663 PWs)   bands (ev):

   -37.2326 -37.2326 -37.2325 -37.2324 -37.2324 -37.2320 -37.2320 -37.2320
   -37.0439 -37.0438 -37.0438 -37.0437 -37.0426 -37.0426 -37.0426 -37.0425
   -36.9842 -36.9840 -36.9839 -36.9839 -36.7174 -36.7171 -36.7170 -36.7170
   -36.7059 -36.7059 -36.7058 -36.7057 -36.7056 -36.7056 -36.7056 -36.7056
   -36.6843 -36.6843 -36.6842 -36.6841 -36.6840 -36.6835 -36.6834 -36.6834
   -36.5868 -36.5867 -36.5866 -36.5865 -36.5864 -36.5859 -36.5858 -36.5858
   -36.5448 -36.5448 -36.5447 -36.5446 -36.5446 -36.5445 -36.5445 -36.5445
   -36.5409 -36.5405 -36.5404 -36.5404 -16.6434 -16.6425 -16.6415 -16.6407
   -16.6387 -16.6312 -16.6305 -16.6304 -16.5122 -16.5107 -16.5104 -16.5102
   -16.5018 -16.5013 -16.5001 -16.4979 -16.4969 -16.4968 -16.4966 -16.4953
   -16.3187 -16.3183 -16.3169 -16.3089 -16.2764 -16.2761 -16.2746 -16.2700
   -16.2592 -16.2490 -16.2473 -16.2470 -16.2163 -16.2162 -16.2159 -16.2110
   -16.2078 -16.2055 -16.2052 -16.2047 -16.0472 -16.0458 -16.0415 -16.0194
   -15.9837 -15.9814 -15.9705 -15.9697 -15.9688 -15.9683 -15.9638 -15.9633
   -15.9267 -15.9267 -15.9258 -15.9190 -15.9180 -15.9173 -15.9159 -15.9156
   -13.3404 -12.6647 -12.6475 -12.2642 -12.1059 -12.0962 -11.8547 -11.7750
   -11.4150 -11.2179 -11.1747 -11.1736  -7.8324  -7.7524  -7.6823  -7.5471
    -7.3331  -7.1607  -6.8528  -6.5295  -6.4843  -6.3674  -6.2187  -4.6311
    -4.6193  -4.4436  -4.4332  -4.2710  -4.1104  -4.0450  -3.9770  -3.8025
    -3.4942  -3.1267  -2.9628  -2.8748  -2.8492  -2.8143  -2.7872  -2.6491
    -2.6485  -2.6450  -2.3578  -2.3456  -2.2469  -2.2126  -2.1081  -1.6111
    -1.4321  -1.3589  -1.2298  -1.2147  -0.9234  -0.8238  -0.5197   0.2729
     0.5029   0.5238   0.5720   0.7841   0.9392   1.2086   1.4661   1.6648
     1.7130   1.7423   1.8351   1.8816   2.0220   2.0985   2.1023   2.2700
     2.5556   2.6320   2.8879   2.9038   3.0793   3.1678   3.2406   3.2576
     3.4189   3.5321

          k = 0.0500-0.2598 0.0000 (186566 PWs)   bands (ev):

   -37.2326 -37.2326 -37.2325 -37.2325 -37.2325 -37.2319 -37.2319 -37.2319
   -37.0439 -37.0438 -37.0438 -37.0437 -37.0427 -37.0426 -37.0425 -37.0425
   -36.9842 -36.9839 -36.9839 -36.9839 -36.7175 -36.7171 -36.7170 -36.7170
   -36.7060 -36.7059 -36.7059 -36.7056 -36.7056 -36.7056 -36.7055 -36.7055
   -36.6843 -36.6843 -36.6842 -36.6842 -36.6842 -36.6833 -36.6833 -36.6833
   -36.5868 -36.5867 -36.5867 -36.5866 -36.5866 -36.5857 -36.5857 -36.5857
   -36.5449 -36.5448 -36.5448 -36.5445 -36.5445 -36.5445 -36.5445 -36.5444
   -36.5409 -36.5405 -36.5404 -36.5404 -16.6436 -16.6426 -16.6423 -16.6422
   -16.6404 -16.6295 -16.6293 -16.6292 -16.5126 -16.5105 -16.5104 -16.5102
   -16.5022 -16.5015 -16.5010 -16.4975 -16.4968 -16.4964 -16.4963 -16.4949
   -16.3204 -16.3202 -16.3197 -16.3084 -16.2756 -16.2753 -16.2747 -16.2676
   -16.2618 -16.2471 -16.2465 -16.2463 -16.2174 -16.2173 -16.2172 -16.2098
   -16.2081 -16.2040 -16.2038 -16.2036 -16.0486 -16.0476 -16.0460 -16.0134
   -15.9868 -15.9850 -15.9678 -15.9677 -15.9669 -15.9663 -15.9639 -15.9634
   -15.9276 -15.9276 -15.9272 -15.9172 -15.9169 -15.9164 -15.9158 -15.9155
   -13.4643 -12.7726 -12.4240 -12.2302 -12.0973 -11.9575 -11.8465 -11.7894
   -11.4643 -11.1907 -11.1790 -11.1790  -7.9294  -7.7965  -7.7453  -7.6590
    -7.4200  -7.2834  -7.0897  -6.5575  -6.5334  -6.4899  -6.1803  -4.4782
    -4.4002  -4.3994  -4.2841  -4.0185  -3.9393  -3.9012  -3.6807  -3.6196
    -3.3116  -3.2099  -2.9679  -2.9516  -2.9257  -2.7807  -2.7501  -2.7484
    -2.7137  -2.5585  -2.3060  -2.2964  -2.2959  -2.0930  -2.0258  -1.6385
    -1.5102  -1.3132  -1.2753  -1.1380  -0.8937  -0.8756  -0.4494   0.3291
     0.4378   0.5724   0.6855   0.6956   0.8419   1.0273   1.2024   1.2453
     1.4310   1.5770   1.5982   1.7792   1.8030   1.8322   1.9010   2.3655
     2.6205   2.7500   2.9329   2.9632   3.0157   3.0952   3.1742   3.2091
     3.2349   3.3719

          k = 0.0500-0.1443 0.0000 (186480 PWs)   bands (ev):

   -37.2326 -37.2326 -37.2326 -37.2326 -37.2326 -37.2319 -37.2319 -37.2319
   -37.0439 -37.0438 -37.0438 -37.0437 -37.0427 -37.0427 -37.0425 -37.0425
   -36.9843 -36.9839 -36.9839 -36.9839 -36.7175 -36.7170 -36.7170 -36.7170
   -36.7060 -36.7059 -36.7059 -36.7056 -36.7056 -36.7056 -36.7055 -36.7055
   -36.6843 -36.6843 -36.6843 -36.6843 -36.6843 -36.6833 -36.6833 -36.6832
   -36.5868 -36.5868 -36.5867 -36.5867 -36.5867 -36.5856 -36.5856 -36.5856
   -36.5449 -36.5448 -36.5448 -36.5445 -36.5445 -36.5445 -36.5444 -36.5444
   -36.5410 -36.5404 -36.5404 -36.5404 -16.6438 -16.6435 -16.6433 -16.6422
   -16.6416 -16.6284 -16.6283 -16.6282 -16.5129 -16.5104 -16.5103 -16.5102
   -16.5025 -16.5017 -16.5016 -16.4972 -16.4970 -16.4962 -16.4959 -16.4945
   -16.3219 -16.3218 -16.3216 -16.3082 -16.2749 -16.2747 -16.2746 -16.2657
   -16.2637 -16.2458 -16.2457 -16.2456 -16.2182 -16.2181 -16.2181 -16.2089
   -16.2083 -16.2029 -16.2028 -16.2027 -16.0498 -16.0493 -16.0490 -16.0086
   -15.9890 -15.9881 -15.9660 -15.9659 -15.9658 -15.9646 -15.9640 -15.9635
   -15.9283 -15.9282 -15.9281 -15.9160 -15.9159 -15.9157 -15.9156 -15.9153
   -13.5448 -12.8436 -12.2346 -12.1890 -12.1077 -11.8578 -11.8368 -11.8056
   -11.4982 -11.1839 -11.1837 -11.1832  -7.9947  -7.8293  -7.8013  -7.7830
    -7.4817  -7.3978  -7.3501  -6.5439  -6.5287  -6.4991  -6.1748  -4.3920
    -4.3761  -4.3751  -4.1253  -3.8672  -3.7717  -3.6991  -3.5545  -3.3779
    -3.2527  -3.0308  -3.0213  -3.0098  -2.9092  -2.8774  -2.8549  -2.7832
    -2.4581  -2.2840  -2.2782  -2.2646  -2.2503  -2.0309  -1.9246  -1.7276
    -1.6501  -1.6062  -1.0847  -0.9941  -0.9393  -0.5880  -0.4015  -0.1107
     0.0944   0.3869   0.4960   0.6427   0.6637   0.7388   0.8720   1.2259
     1.3964   1.5222   1.6581   1.6894   1.7197   1.7366   2.0357   2.3835
     2.7256   2.7507   2.7881   2.8423   3.0098   3.1467   3.2666   3.3132
     3.3415   3.4793

          k = 0.0500-0.0289 0.0000 (186385 PWs)   bands (ev):

   -37.2326 -37.2326 -37.2326 -37.2326 -37.2326 -37.2319 -37.2318 -37.2318
   -37.0439 -37.0438 -37.0438 -37.0437 -37.0427 -37.0427 -37.0425 -37.0425
   -36.9843 -36.9839 -36.9839 -36.9839 -36.7176 -36.7170 -36.7170 -36.7170
   -36.7060 -36.7059 -36.7059 -36.7056 -36.7056 -36.7056 -36.7055 -36.7055
   -36.6843 -36.6843 -36.6843 -36.6843 -36.6843 -36.6832 -36.6832 -36.6832
   -36.5868 -36.5868 -36.5868 -36.5867 -36.5867 -36.5856 -36.5856 -36.5856
   -36.5449 -36.5448 -36.5448 -36.5445 -36.5445 -36.5445 -36.5444 -36.5444
   -36.5410 -36.5404 -36.5404 -36.5404 -16.6439 -16.6439 -16.6438 -16.6422
   -16.6421 -16.6279 -16.6278 -16.6278 -16.5130 -16.5103 -16.5102 -16.5102
   -16.5027 -16.5018 -16.5018 -16.4970 -16.4970 -16.4961 -16.4957 -16.4944
   -16.3225 -16.3225 -16.3225 -16.3082 -16.2745 -16.2745 -16.2745 -16.2648
   -16.2645 -16.2453 -16.2453 -16.2453 -16.2185 -16.2185 -16.2185 -16.2085
   -16.2084 -16.2023 -16.2023 -16.2023 -16.0503 -16.0503 -16.0502 -16.0062
   -15.9899 -15.9898 -15.9651 -15.9651 -15.9651 -15.9640 -15.9638 -15.9638
   -15.9286 -15.9285 -15.9285 -15.9156 -15.9156 -15.9155 -15.9154 -15.9152
   -13.5798 -12.8745 -12.1488 -12.1318 -12.1318 -11.8261 -11.8200 -11.8200
   -11.5134 -11.1858 -11.1858 -11.1856  -8.0234  -7.8392  -7.8392  -7.8339
    -7.4916  -7.4916  -7.4740  -6.5177  -6.5111  -6.5111  -6.1765  -4.3687
    -4.3687  -4.3679  -4.0775  -3.7330  -3.7330  -3.7079  -3.2558  -3.2558
    -3.1956  -3.0528  -3.0528  -3.0337  -3.0196  -2.9757  -2.9757  -2.4307
    -2.3656  -2.2625  -2.2589  -2.2589  -2.0623  -1.9173  -1.8611  -1.7514
    -1.7514  -1.7354  -0.9594  -0.9594  -0.9389  -0.4941  -0.3970  -0.3767
    -0.2451   0.3282   0.3663   0.3663   0.5865   0.6202   0.6202   1.4890
     1.4890   1.5367   1.6122   1.6599   1.6599   1.6656   2.2978   2.3699
     2.6487   2.7171   2.7302   2.7302   3.1603   3.2090   3.2202   3.3134
     3.3576   3.4271

          k = 0.1500 0.1443 0.0000 (186558 PWs)   bands (ev):

   -37.2326 -37.2326 -37.2326 -37.2326 -37.2325 -37.2319 -37.2319 -37.2319
   -37.0439 -37.0438 -37.0438 -37.0437 -37.0427 -37.0427 -37.0426 -37.0425
   -36.9843 -36.9839 -36.9839 -36.9839 -36.7175 -36.7170 -36.7170 -36.7170
   -36.7060 -36.7059 -36.7059 -36.7056 -36.7056 -36.7056 -36.7056 -36.7055
   -36.6843 -36.6843 -36.6843 -36.6842 -36.6842 -36.6833 -36.6833 -36.6833
   -36.5868 -36.5867 -36.5867 -36.5867 -36.5866 -36.5857 -36.5857 -36.5856
   -36.5449 -36.5448 -36.5448 -36.5445 -36.5445 -36.5445 -36.5445 -36.5444
   -36.5410 -36.5404 -36.5404 -36.5404 -16.6437 -16.6432 -16.6427 -16.6423
   -16.6410 -16.6289 -16.6287 -16.6287 -16.5128 -16.5104 -16.5103 -16.5103
   -16.5025 -16.5015 -16.5013 -16.4971 -16.4969 -16.4965 -16.4959 -16.4949
   -16.3212 -16.3210 -16.3208 -16.3083 -16.2752 -16.2750 -16.2746 -16.2666
   -16.2629 -16.2464 -16.2461 -16.2459 -16.2178 -16.2178 -16.2177 -16.2093
   -16.2082 -16.2034 -16.2032 -16.2031 -16.0492 -16.0485 -16.0477 -16.0108
   -15.9880 -15.9866 -15.9668 -15.9666 -15.9663 -15.9654 -15.9640 -15.9635
   -15.9280 -15.9279 -15.9277 -15.9165 -15.9164 -15.9161 -15.9157 -15.9154
   -13.5101 -12.8130 -12.3223 -12.2100 -12.1009 -11.9001 -11.8418 -11.7975
   -11.4835 -11.1853 -11.1816 -11.1812  -7.9664  -7.8154  -7.7753  -7.7268
    -7.4561  -7.3437  -7.2273  -6.5616  -6.5320  -6.4941  -6.1755  -4.4251
    -4.3852  -4.3850  -4.1854  -3.9463  -3.8490  -3.7303  -3.6651  -3.5241
    -3.2383  -3.0428  -3.0043  -2.9912  -2.9722  -2.8488  -2.8090  -2.8017
    -2.5634  -2.4242  -2.2964  -2.2905  -2.2767  -2.0525  -1.9763  -1.6891
    -1.5845  -1.4746  -1.1763  -1.0606  -0.9195  -0.7177  -0.4231   0.1214
     0.3337   0.4083   0.6651   0.6779   0.8197   0.8979   0.9830   1.2125
     1.2613   1.5551   1.6768   1.7254   1.7685   1.8099   1.8673   2.3825
     2.7030   2.7601   2.8573   2.9289   2.9504   3.1056   3.2474   3.2931
     3.3122   3.3252

          k = 0.1500 0.2598 0.0000 (186586 PWs)   bands (ev):

   -37.2326 -37.2326 -37.2326 -37.2325 -37.2325 -37.2320 -37.2320 -37.2319
   -37.0439 -37.0438 -37.0438 -37.0437 -37.0426 -37.0426 -37.0426 -37.0425
   -36.9842 -36.9839 -36.9839 -36.9838 -36.7175 -36.7170 -36.7170 -36.7170
   -36.7060 -36.7059 -36.7059 -36.7056 -36.7056 -36.7056 -36.7056 -36.7056
   -36.6843 -36.6843 -36.6843 -36.6841 -36.6841 -36.6834 -36.6834 -36.6834
   -36.5867 -36.5867 -36.5867 -36.5866 -36.5865 -36.5857 -36.5857 -36.5857
   -36.5449 -36.5448 -36.5448 -36.5445 -36.5445 -36.5445 -36.5445 -36.5445
   -36.5409 -36.5405 -36.5405 -36.5404 -16.6431 -16.6431 -16.6424 -16.6413
   -16.6400 -16.6298 -16.6298 -16.6296 -16.5125 -16.5104 -16.5104 -16.5102
   -16.5023 -16.5011 -16.5011 -16.4970 -16.4969 -16.4969 -16.4960 -16.4955
   -16.3200 -16.3191 -16.3191 -16.3085 -16.2760 -16.2751 -16.2751 -16.2684
   -16.2611 -16.2472 -16.2472 -16.2464 -16.2171 -16.2171 -16.2167 -16.2101
   -16.2081 -16.2046 -16.2040 -16.2040 -16.0485 -16.0457 -16.0457 -16.0151
   -15.9863 -15.9836 -15.9690 -15.9690 -15.9668 -15.9652 -15.9652 -15.9634
   -15.9274 -15.9270 -15.9270 -15.9176 -15.9175 -15.9162 -15.9162 -15.9156
   -13.4301 -12.7427 -12.3980 -12.3980 -12.0257 -11.9389 -11.9389 -11.7629
   -11.4504 -11.1867 -11.1867 -11.1796  -7.9022  -7.8053  -7.6553  -7.6553
    -7.4626  -7.0875  -7.0875  -6.5512  -6.5512  -6.4632  -6.1868  -4.5859
    -4.3891  -4.3891  -4.3664  -4.1409  -4.0046  -3.7918  -3.7918  -3.4611
    -3.4451  -3.4451  -2.9494  -2.9013  -2.9013  -2.8589  -2.7257  -2.7244
    -2.7244  -2.5589  -2.3018  -2.2974  -2.2974  -2.2255  -2.0280  -1.6705
    -1.3908  -1.2996  -1.2996  -1.0042  -1.0042  -0.9579  -0.4961   0.4478
     0.4880   0.7150   0.7150   0.7384   0.9600   0.9600   1.3429   1.3429
     1.4543   1.4905   1.7008   1.7547   1.7961   1.9348   1.9348   2.3341
     2.5927   2.8342   2.8342   2.9184   3.0283   3.0432   3.1530   3.1530
     3.2601   3.4150

          k = 0.1500 0.3753 0.0000 (186604 PWs)   bands (ev):

   -37.2326 -37.2326 -37.2325 -37.2324 -37.2324 -37.2320 -37.2320 -37.2320
   -37.0439 -37.0438 -37.0438 -37.0437 -37.0426 -37.0426 -37.0426 -37.0425
   -36.9842 -36.9840 -36.9839 -36.9838 -36.7174 -36.7171 -36.7171 -36.7169
   -36.7059 -36.7059 -36.7058 -36.7056 -36.7056 -36.7056 -36.7056 -36.7056
   -36.6843 -36.6843 -36.6842 -36.6840 -36.6840 -36.6835 -36.6835 -36.6834
   -36.5867 -36.5867 -36.5867 -36.5865 -36.5864 -36.5859 -36.5858 -36.5858
   -36.5448 -36.5448 -36.5447 -36.5445 -36.5445 -36.5445 -36.5445 -36.5445
   -36.5408 -36.5405 -36.5405 -36.5404 -16.6430 -16.6424 -16.6422 -16.6397
   -16.6384 -16.6314 -16.6310 -16.6308 -16.5121 -16.5107 -16.5105 -16.5102
   -16.5019 -16.5008 -16.5003 -16.4976 -16.4970 -16.4966 -16.4964 -16.4960
   -16.3185 -16.3173 -16.3166 -16.3091 -16.2768 -16.2757 -16.2750 -16.2706
   -16.2585 -16.2490 -16.2481 -16.2470 -16.2161 -16.2160 -16.2154 -16.2113
   -16.2077 -16.2061 -16.2052 -16.2050 -16.0476 -16.0435 -16.0414 -16.0206
   -15.9838 -15.9798 -15.9719 -15.9714 -15.9674 -15.9673 -15.9651 -15.9636
   -15.9265 -15.9262 -15.9258 -15.9193 -15.9188 -15.9168 -15.9162 -15.9158
   -13.3072 -12.6359 -12.6197 -12.4548 -12.0846 -11.9718 -11.9696 -11.7348
   -11.4023 -11.2120 -11.1881 -11.1776  -7.8071  -7.7831  -7.5892  -7.5428
    -7.4305  -6.9611  -6.8517  -6.5097  -6.4428  -6.3817  -6.2334  -4.7808
    -4.7183  -4.4742  -4.4098  -4.3689  -4.0103  -3.9872  -3.8804  -3.7152
    -3.6708  -3.3194  -3.0436  -2.8676  -2.8186  -2.8050  -2.7843  -2.6436
    -2.6379  -2.6193  -2.4601  -2.3587  -2.2836  -2.2054  -2.0776  -1.7498
    -1.4260  -1.2729  -1.2214  -1.0206  -0.9774  -0.8627  -0.5873  -0.0013
     0.6263   0.7817   0.8537   1.0599   1.1154   1.2000   1.2938   1.4691
     1.5320   1.7644   1.8213   1.9196   2.0913   2.1223   2.2237   2.3625
     2.5226   2.6938   2.8167   2.9043   2.9053   3.1623   3.1635   3.1686
     3.5688   3.6227

          k = 0.1500 0.4907 0.0000 (186601 PWs)   bands (ev):

   -37.2326 -37.2326 -37.2325 -37.2323 -37.2323 -37.2321 -37.2321 -37.2320
   -37.0439 -37.0438 -37.0438 -37.0437 -37.0426 -37.0426 -37.0426 -37.0426
   -36.9841 -36.9840 -36.9839 -36.9838 -36.7173 -36.7172 -36.7171 -36.7169
   -36.7059 -36.7059 -36.7058 -36.7057 -36.7056 -36.7056 -36.7056 -36.7056
   -36.6843 -36.6843 -36.6842 -36.6839 -36.6839 -36.6836 -36.6835 -36.6835
   -36.5867 -36.5867 -36.5866 -36.5864 -36.5863 -36.5860 -36.5859 -36.5859
   -36.5448 -36.5448 -36.5447 -36.5446 -36.5446 -36.5445 -36.5445 -36.5445
   -36.5408 -36.5406 -36.5405 -36.5403 -16.6428 -16.6426 -16.6413 -16.6382
   -16.6365 -16.6333 -16.6321 -16.6320 -16.5116 -16.5110 -16.5105 -16.5101
   -16.5015 -16.5007 -16.4995 -16.4982 -16.4974 -16.4970 -16.4963 -16.4962
   -16.3174 -16.3159 -16.3138 -16.3104 -16.2774 -16.2763 -16.2746 -16.2727
   -16.2556 -16.2513 -16.2487 -16.2474 -16.2152 -16.2147 -16.2141 -16.2126
   -16.2076 -16.2072 -16.2062 -16.2061 -16.0468 -16.0420 -16.0360 -16.0268
   -15.9807 -15.9758 -15.9753 -15.9732 -15.9703 -15.9678 -15.9650 -15.9637
   -15.9256 -15.9255 -15.9241 -15.9212 -15.9200 -15.9174 -15.9162 -15.9160
   -13.1453 -12.8439 -12.4979 -12.4878 -12.2525 -11.9881 -11.9425 -11.7166
   -11.3447 -11.2572 -11.1891 -11.1761  -7.7630  -7.6921  -7.5473  -7.5416
    -7.3922  -6.8781  -6.6507  -6.4617  -6.4338  -6.3487  -5.9683  -5.2010
    -4.9002  -4.7087  -4.4025  -4.3091  -4.1957  -4.1455  -3.9908  -3.9506
    -3.4858  -3.1730  -3.1663  -3.0005  -2.8103  -2.7799  -2.7400  -2.6688
    -2.5818  -2.5701  -2.4382  -2.4120  -2.2706  -2.1770  -2.0135  -1.9197
    -1.6017  -1.3294  -1.2745  -0.8553  -0.8513  -0.6902  -0.4402  -0.3590
     0.2844   0.6032   0.8858   1.0787   1.1853   1.2946   1.6326   1.7291
     1.8086   1.9600   2.0566   2.0597   2.0991   2.1599   2.2325   2.5153
     2.6170   2.6335   2.7251   3.1031   3.2429   3.2937   3.3466   3.3731
     3.7699   3.8567

          k = 0.1500 0.6062 0.0000 (186657 PWs)   bands (ev):

   -37.2326 -37.2326 -37.2325 -37.2323 -37.2323 -37.2322 -37.2321 -37.2321
   -37.0439 -37.0438 -37.0438 -37.0437 -37.0426 -37.0426 -37.0426 -37.0425
   -36.9841 -36.9840 -36.9839 -36.9838 -36.7173 -36.7172 -36.7171 -36.7169
   -36.7059 -36.7059 -36.7058 -36.7057 -36.7057 -36.7056 -36.7056 -36.7056
   -36.6843 -36.6843 -36.6842 -36.6839 -36.6838 -36.6837 -36.6835 -36.6835
   -36.5867 -36.5867 -36.5866 -36.5863 -36.5862 -36.5861 -36.5859 -36.5859
   -36.5448 -36.5448 -36.5447 -36.5446 -36.5446 -36.5445 -36.5445 -36.5445
   -36.5407 -36.5407 -36.5405 -36.5403 -16.6427 -16.6426 -16.6411 -16.6378
   -16.6354 -16.6344 -16.6325 -16.6323 -16.5114 -16.5112 -16.5105 -16.5101
   -16.5011 -16.5008 -16.4985 -16.4985 -16.4985 -16.4968 -16.4965 -16.4958
   -16.3172 -16.3155 -16.3125 -16.3114 -16.2776 -16.2765 -16.2741 -16.2735
   -16.2541 -16.2527 -16.2488 -16.2475 -16.2149 -16.2141 -16.2137 -16.2133
   -16.2080 -16.2069 -16.2065 -16.2064 -16.0467 -16.0416 -16.0331 -16.0300
   -15.9789 -15.9772 -15.9739 -15.9736 -15.9720 -15.9679 -15.9649 -15.9637
   -15.9254 -15.9252 -15.9232 -15.9222 -15.9203 -15.9175 -15.9161 -15.9160
   -13.0515 -12.9506 -12.4946 -12.4198 -12.3373 -11.9919 -11.9367 -11.7127
   -11.3145 -11.2850 -11.1893 -11.1758  -7.7581  -7.6336  -7.5808  -7.5385
    -7.3822  -6.8601  -6.5412  -6.4490  -6.4372  -6.4325  -5.7201  -5.4613
    -4.9209  -4.7638  -4.3668  -4.2994  -4.2706  -4.1928  -4.0169  -3.9853
    -3.3763  -3.2638  -3.1094  -3.0588  -2.7943  -2.7512  -2.7473  -2.7279
    -2.5771  -2.5508  -2.4171  -2.3398  -2.2683  -2.2508  -1.9669  -1.8914
    -1.7541  -1.3597  -1.2173  -0.8068  -0.7980  -0.7434  -0.4555  -0.1994
     0.0455   0.5341   0.9504   1.0176   1.2446   1.2872   1.7198   1.7920
     1.8780   2.0040   2.0488   2.1024   2.1094   2.1184   2.3245   2.4960
     2.6507   2.6512   2.7804   3.2226   3.2535   3.2641   3.4942   3.6309
     3.6664   3.8477

          k = 0.1500-0.4330 0.0000 (186606 PWs)   bands (ev):

   -37.2326 -37.2326 -37.2325 -37.2324 -37.2324 -37.2321 -37.2320 -37.2320
   -37.0439 -37.0438 -37.0438 -37.0437 -37.0427 -37.0426 -37.0426 -37.0425
   -36.9841 -36.9840 -36.9839 -36.9838 -36.7174 -36.7171 -36.7171 -36.7169
   -36.7059 -36.7059 -36.7058 -36.7057 -36.7057 -36.7056 -36.7056 -36.7055
   -36.6843 -36.6843 -36.6842 -36.6840 -36.6839 -36.6836 -36.6835 -36.6835
   -36.5867 -36.5867 -36.5866 -36.5864 -36.5863 -36.5859 -36.5859 -36.5859
   -36.5448 -36.5448 -36.5447 -36.5446 -36.5446 -36.5445 -36.5445 -36.5445
   -36.5408 -36.5406 -36.5405 -36.5403 -16.6429 -16.6425 -16.6417 -16.6390
   -16.6375 -16.6324 -16.6316 -16.6315 -16.5119 -16.5108 -16.5105 -16.5101
   -16.5012 -16.5011 -16.4995 -16.4985 -16.4977 -16.4968 -16.4965 -16.4954
   -16.3179 -16.3165 -16.3152 -16.3096 -16.2772 -16.2761 -16.2748 -16.2717
   -16.2571 -16.2501 -16.2484 -16.2472 -16.2156 -16.2154 -16.2147 -16.2119
   -16.2075 -16.2069 -16.2058 -16.2055 -16.0472 -16.0426 -16.0388 -16.0237
   -15.9823 -15.9778 -15.9736 -15.9724 -15.9687 -15.9676 -15.9650 -15.9636
   -15.9259 -15.9259 -15.9250 -15.9203 -15.9195 -15.9171 -15.9162 -15.9158
   -13.2308 -12.7329 -12.5704 -12.4745 -12.1673 -11.9806 -11.9541 -11.7242
   -11.3743 -11.2325 -11.1887 -11.1767  -7.7718  -7.7511  -7.5645  -7.5261
    -7.4097  -6.9126  -6.7549  -6.4839  -6.4370  -6.2807  -6.1948  -4.9494
    -4.8536  -4.6088  -4.4139  -4.3445  -4.0755  -4.0550  -4.0001  -3.8434
    -3.5853  -3.2458  -3.1006  -2.9045  -2.8219  -2.8110  -2.7659  -2.6054
    -2.6021  -2.5703  -2.5357  -2.3907  -2.2759  -2.1196  -2.1188  -1.8413
    -1.4399  -1.3549  -1.2762  -0.9358  -0.9064  -0.6681  -0.6369  -0.1990
     0.4950   0.7223   0.8289   1.1212   1.1259   1.2468   1.5205   1.5471
     1.7826   1.8176   1.8988   2.0311   2.1362   2.1634   2.1727   2.5200
     2.5613   2.6400   2.7581   2.9816   3.0353   3.2025   3.2320   3.2654
     3.6626   3.8211

          k = 0.1500-0.3175 0.0000 (186613 PWs)   bands (ev):

   -37.2326 -37.2326 -37.2325 -37.2325 -37.2324 -37.2320 -37.2320 -37.2319
   -37.0439 -37.0438 -37.0438 -37.0437 -37.0427 -37.0426 -37.0425 -37.0425
   -36.9842 -36.9839 -36.9839 -36.9838 -36.7174 -36.7171 -36.7170 -36.7169
   -36.7059 -36.7059 -36.7058 -36.7057 -36.7056 -36.7056 -36.7055 -36.7055
   -36.6843 -36.6843 -36.6842 -36.6841 -36.6841 -36.6834 -36.6834 -36.6834
   -36.5867 -36.5867 -36.5867 -36.5865 -36.5865 -36.5858 -36.5858 -36.5858
   -36.5448 -36.5448 -36.5447 -36.5446 -36.5446 -36.5445 -36.5445 -36.5444
   -36.5409 -36.5405 -36.5405 -36.5404 -16.6430 -16.6426 -16.6424 -16.6406
   -16.6392 -16.6306 -16.6304 -16.6301 -16.5123 -16.5105 -16.5105 -16.5101
   -16.5016 -16.5013 -16.5005 -16.4981 -16.4970 -16.4969 -16.4962 -16.4950
   -16.3192 -16.3182 -16.3179 -16.3087 -16.2764 -16.2754 -16.2751 -16.2695
   -16.2598 -16.2480 -16.2476 -16.2467 -16.2166 -16.2166 -16.2161 -16.2106
   -16.2079 -16.2053 -16.2046 -16.2045 -16.0481 -16.0446 -16.0437 -16.0177
   -15.9851 -15.9818 -15.9704 -15.9702 -15.9671 -15.9661 -15.9651 -15.9635
   -15.9269 -15.9267 -15.9264 -15.9185 -15.9182 -15.9164 -15.9162 -15.9156
   -13.3738 -12.6936 -12.5070 -12.4291 -12.0073 -11.9958 -11.9556 -11.7479
   -11.4279 -11.1966 -11.1874 -11.1786  -7.8580  -7.7947  -7.6203  -7.5903
    -7.4496  -7.0207  -6.9582  -6.5336  -6.5033  -6.4514  -6.2036  -4.6876
    -4.5209  -4.3991  -4.3833  -4.3143  -4.0158  -3.8882  -3.7401  -3.6790
    -3.5785  -3.3870  -2.9673  -2.9104  -2.8530  -2.8509  -2.6849  -2.6789
    -2.6780  -2.6637  -2.3436  -2.3271  -2.2917  -2.2665  -2.0481  -1.6813
    -1.4502  -1.2222  -1.1258  -1.1106  -1.0488  -0.9592  -0.5390   0.2175
     0.6157   0.7441   0.8837   0.9451   1.0054   1.1266   1.3129   1.3190
     1.4006   1.6757   1.7595   1.8254   2.0115   2.0335   2.0501   2.2916
     2.5355   2.7713   2.8480   2.8855   2.9595   3.0895   3.1341   3.1407
     3.4132   3.4858

          k = 0.1500-0.2021 0.0000 (186584 PWs)   bands (ev):

   -37.2326 -37.2326 -37.2326 -37.2325 -37.2325 -37.2319 -37.2319 -37.2319
   -37.0439 -37.0438 -37.0438 -37.0437 -37.0427 -37.0427 -37.0425 -37.0425
   -36.9842 -36.9839 -36.9839 -36.9838 -36.7175 -36.7170 -36.7170 -36.7170
   -36.7059 -36.7059 -36.7059 -36.7056 -36.7056 -36.7056 -36.7055 -36.7055
   -36.6843 -36.6843 -36.6843 -36.6842 -36.6842 -36.6833 -36.6833 -36.6833
   -36.5868 -36.5867 -36.5867 -36.5866 -36.5866 -36.5857 -36.5857 -36.5857
   -36.5448 -36.5448 -36.5448 -36.5446 -36.5445 -36.5445 -36.5444 -36.5444
   -36.5409 -36.5405 -36.5404 -36.5404 -16.6434 -16.6432 -16.6423 -16.6422
   -16.6406 -16.6293 -16.6292 -16.6290 -16.5127 -16.5105 -16.5103 -16.5102
   -16.5021 -16.5015 -16.5012 -16.4977 -16.4972 -16.4964 -16.4960 -16.4946
   -16.3206 -16.3202 -16.3201 -16.3083 -16.2756 -16.2750 -16.2748 -16.2674
   -16.2620 -16.2467 -16.2466 -16.2461 -16.2175 -16.2175 -16.2173 -16.2096
   -16.2082 -16.2039 -16.2036 -16.2036 -16.0490 -16.0473 -16.0467 -16.0127
   -15.9873 -15.9853 -15.9678 -15.9678 -15.9665 -15.9653 -15.9645 -15.9634
   -15.9277 -15.9275 -15.9275 -15.9170 -15.9169 -15.9161 -15.9158 -15.9154
   -13.4757 -12.7827 -12.3621 -12.2972 -12.0611 -11.9202 -11.8829 -11.7795
   -11.4691 -11.1860 -11.1820 -11.1806  -7.9386  -7.8126  -7.7210  -7.6919
    -7.4654  -7.2233  -7.1578  -6.5607  -6.5511  -6.4776  -6.1786  -4.4924
    -4.3891  -4.3843  -4.2566  -4.0150  -3.9131  -3.8271  -3.7122  -3.4910
    -3.3268  -3.2430  -2.9804  -2.9515  -2.9435  -2.7823  -2.7683  -2.7640
    -2.7188  -2.4788  -2.3017  -2.2991  -2.2850  -2.1177  -2.0105  -1.6840
    -1.4558  -1.3904  -1.2876  -1.0368  -0.9517  -0.8264  -0.4550   0.3069
     0.5272   0.5348   0.6725   0.6932   0.7852   0.9242   1.1994   1.2964
     1.4250   1.4648   1.6421   1.7490   1.7653   1.8433   1.8663   2.3661
     2.6557   2.7969   2.8590   2.9653   3.0122   3.0200   3.1967   3.2112
     3.2543   3.3569

          k = 0.1500-0.0866 0.0000 (186522 PWs)   bands (ev):

   -37.2326 -37.2326 -37.2326 -37.2326 -37.2326 -37.2319 -37.2319 -37.2319
   -37.0439 -37.0438 -37.0438 -37.0437 -37.0427 -37.0427 -37.0425 -37.0425
   -36.9843 -36.9839 -36.9839 -36.9839 -36.7175 -36.7170 -36.7170 -36.7170
   -36.7060 -36.7059 -36.7059 -36.7056 -36.7056 -36.7056 -36.7055 -36.7055
   -36.6843 -36.6843 -36.6843 -36.6843 -36.6843 -36.6833 -36.6833 -36.6833
   -36.5868 -36.5867 -36.5867 -36.5867 -36.5867 -36.5856 -36.5856 -36.5856
   -36.5449 -36.5448 -36.5448 -36.5445 -36.5445 -36.5445 -36.5444 -36.5444
   -36.5410 -36.5404 -36.5404 -36.5404 -16.6437 -16.6433 -16.6433 -16.6422
   -16.6414 -16.6286 -16.6284 -16.6284 -16.5129 -16.5104 -16.5102 -16.5102
   -16.5024 -16.5016 -16.5016 -16.4973 -16.4973 -16.4961 -16.4960 -16.4944
   -16.3216 -16.3216 -16.3213 -16.3082 -16.2749 -16.2749 -16.2746 -16.2661
   -16.2634 -16.2460 -16.2458 -16.2458 -16.2180 -16.2180 -16.2180 -16.2090
   -16.2083 -16.2030 -16.2030 -16.2029 -16.0494 -16.0494 -16.0484 -16.0094
   -15.9886 -15.9876 -15.9661 -15.9661 -15.9660 -15.9652 -15.9636 -15.9636
   -15.9281 -15.9281 -15.9280 -15.9162 -15.9161 -15.9161 -15.9156 -15.9153
   -13.5332 -12.8333 -12.2794 -12.1440 -12.1440 -11.8790 -11.8167 -11.8167
   -11.4933 -11.1846 -11.1824 -11.1824  -7.9852  -7.8117  -7.8117  -7.7580
    -7.4334  -7.4334  -7.2925  -6.5556  -6.5115  -6.5115  -6.1747  -4.3890
    -4.3890  -4.3796  -4.1440  -3.8615  -3.8615  -3.6603  -3.5447  -3.5447
    -3.2037  -3.0177  -3.0177  -2.9886  -2.9068  -2.8813  -2.8392  -2.8392
    -2.4648  -2.3482  -2.2907  -2.2751  -2.2751  -2.0358  -1.9344  -1.6778
    -1.6778  -1.5476  -1.0767  -1.0767  -0.9128  -0.6382  -0.4025  -0.0283
     0.1807   0.3568   0.6162   0.6683   0.6683   0.8806   0.8806   1.2377
     1.2377   1.5802   1.6665   1.7162   1.7162   1.7662   1.9754   2.3862
     2.7238   2.7414   2.8485   2.8485   2.9656   3.1913   3.2622   3.2828
     3.2977   3.3676

[...]
     1.5762   1.7242   1.8915   2.0249   2.1557   2.1630   2.1682   2.4956
     2.5218   2.7031   2.7509   2.8655   3.0354   3.1676   3.1693   3.2186
     3.6425   3.7960

          k = 0.4500 0.0866 0.0000 (186606 PWs)   bands (ev):

   -37.2326 -37.2326 -37.2325 -37.2324 -37.2324 -37.2321 -37.2320 -37.2320
   -37.0439 -37.0438 -37.0438 -37.0437 -37.0427 -37.0426 -37.0426 -37.0425
   -36.9841 -36.9840 -36.9839 -36.9838 -36.7174 -36.7171 -36.7171 -36.7169
   -36.7059 -36.7059 -36.7058 -36.7057 -36.7057 -36.7056 -36.7056 -36.7055
   -36.6843 -36.6843 -36.6842 -36.6840 -36.6839 -36.6836 -36.6835 -36.6835
   -36.5867 -36.5867 -36.5866 -36.5864 -36.5863 -36.5859 -36.5859 -36.5859
   -36.5448 -36.5448 -36.5447 -36.5446 -36.5446 -36.5445 -36.5445 -36.5445
   -36.5408 -36.5406 -36.5405 -36.5403 -16.6429 -16.6425 -16.6417 -16.6390
   -16.6375 -16.6324 -16.6316 -16.6315 -16.5119 -16.5108 -16.5105 -16.5101
   -16.5012 -16.5011 -16.4995 -16.4985 -16.4977 -16.4968 -16.4965 -16.4954
   -16.3179 -16.3165 -16.3152 -16.3096 -16.2772 -16.2761 -16.2748 -16.2717
   -16.2571 -16.2501 -16.2484 -16.2472 -16.2156 -16.2154 -16.2147 -16.2119
   -16.2075 -16.2069 -16.2058 -16.2055 -16.0472 -16.0426 -16.0388 -16.0237
   -15.9823 -15.9778 -15.9736 -15.9724 -15.9687 -15.9676 -15.9650 -15.9636
   -15.9259 -15.9259 -15.9250 -15.9203 -15.9195 -15.9171 -15.9162 -15.9158
   -13.2308 -12.7329 -12.5704 -12.4745 -12.1673 -11.9806 -11.9541 -11.7242
   -11.3743 -11.2325 -11.1887 -11.1767  -7.7718  -7.7511  -7.5645  -7.5261
    -7.4097  -6.9126  -6.7549  -6.4839  -6.4370  -6.2807  -6.1948  -4.9494
    -4.8536  -4.6088  -4.4139  -4.3445  -4.0755  -4.0550  -4.0001  -3.8434
    -3.5853  -3.2458  -3.1006  -2.9045  -2.8219  -2.8110  -2.7659  -2.6054
    -2.6021  -2.5703  -2.5357  -2.3907  -2.2759  -2.1196  -2.1188  -1.8413
    -1.4399  -1.3549  -1.2762  -0.9358  -0.9064  -0.6681  -0.6369  -0.1990
     0.4950   0.7223   0.8289   1.1212   1.1259   1.2468   1.5205   1.5471
     1.7826   1.8176   1.8988   2.0311   2.1362   2.1634   2.1727   2.5200
     2.5613   2.6400   2.7581   2.9816   3.0353   3.2025   3.2320   3.2654
     3.6626   3.8211

          k = 0.4500 0.2021 0.0000 (186681 PWs)   bands (ev):

   -37.2326 -37.2326 -37.2324 -37.2324 -37.2323 -37.2321 -37.2320 -37.2320
   -37.0439 -37.0438 -37.0437 -37.0437 -37.0426 -37.0426 -37.0426 -37.0425
   -36.9841 -36.9840 -36.9839 -36.9838 -36.7173 -36.7172 -36.7170 -36.7170
   -36.7059 -36.7059 -36.7058 -36.7057 -36.7056 -36.7056 -36.7056 -36.7056
   -36.6843 -36.6843 -36.6841 -36.6840 -36.6839 -36.6836 -36.6835 -36.6835
   -36.5867 -36.5867 -36.5865 -36.5865 -36.5863 -36.5860 -36.5859 -36.5859
   -36.5448 -36.5448 -36.5447 -36.5446 -36.5446 -36.5445 -36.5445 -36.5445
   -36.5408 -36.5406 -36.5404 -36.5404 -16.6431 -16.6427 -16.6405 -16.6395
   -16.6366 -16.6333 -16.6316 -16.6316 -16.5117 -16.5111 -16.5103 -16.5102
   -16.5013 -16.5011 -16.4991 -16.4980 -16.4977 -16.4972 -16.4964 -16.4957
   -16.3174 -16.3169 -16.3140 -16.3103 -16.2771 -16.2768 -16.2741 -16.2722
   -16.2561 -16.2515 -16.2479 -16.2475 -16.2152 -16.2149 -16.2148 -16.2125
   -16.2072 -16.2068 -16.2063 -16.2058 -16.0461 -16.0445 -16.0358 -16.0260
   -15.9799 -15.9776 -15.9741 -15.9720 -15.9712 -15.9693 -15.9637 -15.9633
   -15.9260 -15.9259 -15.9241 -15.9210 -15.9190 -15.9181 -15.9159 -15.9158
   -13.1773 -12.8736 -12.5251 -12.2851 -12.2764 -12.0981 -11.8601 -11.7659
   -11.3557 -11.2652 -11.1718 -11.1696  -7.7164  -7.7141  -7.6357  -7.5542
    -7.2614  -7.0697  -6.6393  -6.5220  -6.4822  -6.3277  -5.9324  -5.1323
    -4.7170  -4.5094  -4.4835  -4.4214  -4.2684  -4.1698  -4.1344  -4.0626
    -3.3272  -3.0697  -3.0611  -3.0080  -2.7743  -2.7474  -2.6891  -2.5763
    -2.5651  -2.4921  -2.4336  -2.4325  -2.3877  -2.2279  -2.0126  -1.7432
    -1.5806  -1.5416  -1.2224  -1.0767  -0.7454  -0.6063  -0.4612  -0.0591
     0.2412   0.2672   0.6535   0.9045   0.9371   1.0482   1.8400   1.8587
     1.9242   1.9243   2.0714   2.0878   2.1210   2.1615   2.3819   2.4928
     2.5617   2.6140   2.8166   3.0366   3.2729   3.2934   3.4904   3.5643
     3.7023   3.7513

     the Fermi energy is    -1.6778 ev

!    total energy              =   -4146.60507937 Ry
     estimated scf accuracy    <          3.2E-10 Ry
     smearing contrib. (-TS)   =      -0.00000041 Ry
     internal energy E=F+TS    =   -4146.60507896 Ry

     The total energy is F=E-TS. E is the sum of the following terms:
     one-electron contribution =  -50028.31619674 Ry
     hartree contribution      =   25090.26535799 Ry
     xc contribution           =    -964.55376997 Ry
     ewald contribution        =   21756.00334631 Ry
     electric field correction =      -0.00381654 Ry

     convergence has been achieved in  48 iterations

     Forces acting on atoms (cartesian axes, Ry/au):

     atom    1 type  1   force =     0.00000142   -0.00000082   -0.01495202
     atom    2 type  1   force =    -0.00004341    0.00002474    0.00651912
     atom    3 type  1   force =    -0.00003660    0.00002119    0.02200634
     atom    4 type  1   force =    -0.00004329    0.00002508    0.00651909
     atom    5 type  1   force =    -0.00003640    0.00002112    0.02200639
     atom    6 type  1   force =     0.00000142   -0.00000082   -0.01495200
     atom    7 type  1   force =    -0.00004301    0.00002465    0.00651904
     atom    8 type  1   force =    -0.00003623    0.00002127    0.02200635
     atom    9 type  1   force =     0.00000146   -0.00000082   -0.01495203
     atom   10 type  1   force =    -0.00004319    0.00002502    0.00651915
     atom   11 type  1   force =    -0.00003671    0.00002127    0.02200659
     atom   12 type  1   force =     0.00000145   -0.00000083   -0.01495197
     atom   13 type  2   force =     0.00005309   -0.00003074   -0.00845733
     atom   14 type  2   force =     0.00000662   -0.00000388   -0.01420128
     atom   15 type  2   force =     0.00001843   -0.00001063    0.00908505
     atom   16 type  2   force =     0.00001835   -0.00001052    0.00908498
     atom   17 type  2   force =     0.00005307   -0.00003103   -0.00845719
     atom   18 type  2   force =     0.00000676   -0.00000384   -0.01420125
     atom   19 type  2   force =     0.00005326   -0.00003064   -0.00845719
     atom   20 type  2   force =     0.00000674   -0.00000381   -0.01420133
     atom   21 type  2   force =     0.00001822   -0.00001046    0.00908518
     atom   22 type  2   force =     0.00005362   -0.00003120   -0.00845734
     atom   23 type  2   force =     0.00000658   -0.00000388   -0.01420136
     atom   24 type  2   force =     0.00001835   -0.00001045    0.00908500
     The non-local contrib.  to forces
     atom    1 type  1   force =    -0.00002913    0.00001681    0.35590902
     atom    2 type  1   force =     0.00013168   -0.00007606   -0.08507111
     atom    3 type  1   force =     0.00001003   -0.00000570   -0.10275848
     atom    4 type  1   force =     0.00013163   -0.00007612   -0.08507109
     atom    5 type  1   force =     0.00001004   -0.00000583   -0.10275839
     atom    6 type  1   force =    -0.00002912    0.00001679    0.35590900
     atom    7 type  1   force =     0.00013176   -0.00007608   -0.08507086
     atom    8 type  1   force =     0.00001032   -0.00000588   -0.10275844
     atom    9 type  1   force =    -0.00002923    0.00001677    0.35590905
     atom   10 type  1   force =     0.00013167   -0.00007596   -0.08507111
     atom   11 type  1   force =     0.00001014   -0.00000575   -0.10275852
     atom   12 type  1   force =    -0.00002923    0.00001678    0.35590899
     atom   13 type  2   force =    -0.00018451    0.00010694   -0.04752093
     atom   14 type  2   force =    -0.00004065    0.00002322   -0.45136064
     atom   15 type  2   force =    -0.00005979    0.00003478    0.11258707
     atom   16 type  2   force =    -0.00005998    0.00003432    0.11258722
     atom   17 type  2   force =    -0.00018459    0.00010678   -0.04752108
     atom   18 type  2   force =    -0.00004011    0.00002343   -0.45136066
     atom   19 type  2   force =    -0.00018462    0.00010654   -0.04752110
     atom   20 type  2   force =    -0.00004007    0.00002344   -0.45136066
     atom   21 type  2   force =    -0.00005986    0.00003438    0.11258678
     atom   22 type  2   force =    -0.00018492    0.00010709   -0.04752078
     atom   23 type  2   force =    -0.00004066    0.00002318   -0.45136065
     atom   24 type  2   force =    -0.00005995    0.00003435    0.11258710
     The ionic contribution  to forces
     atom    1 type  1   force =     0.00000062   -0.00000103 -167.56823365
     atom    2 type  1   force =    -0.00001377   -0.00001957  -53.88644650
     atom    3 type  1   force =    -0.00001024    0.00001227   80.02791724
     atom    4 type  1   force =    -0.00000297    0.00001769  -53.88645316
     atom    5 type  1   force =     0.00000702   -0.00000737   80.02792777
     atom    6 type  1   force =     0.00000475   -0.00000180 -167.56823119
     atom    7 type  1   force =     0.00002264   -0.00003124  -53.88645601
     atom    8 type  1   force =     0.00001650    0.00002370   80.02792137
     atom    9 type  1   force =    -0.00000123    0.00000357 -167.56823276
     atom   10 type  1   force =     0.00001018    0.00000841  -53.88644934
     atom   11 type  1   force =    -0.00002147    0.00000292   80.02794471
     atom   12 type  1   force =    -0.00000448   -0.00000021 -167.56822758
     atom   13 type  2   force =    -0.00001144    0.00000988   53.88643765
     atom   14 type  2   force =     0.00000929    0.00000439  188.12656113
     atom   15 type  2   force =     0.00000361   -0.00001556 -100.58625196
     atom   16 type  2   force =     0.00000416    0.00001198 -100.58626457
     atom   17 type  2   force =    -0.00000886   -0.00002094   53.88645403
     atom   18 type  2   force =    -0.00001214   -0.00000315  188.12655812
     atom   19 type  2   force =     0.00000615    0.00001817   53.88645570
     atom   20 type  2   force =    -0.00001042   -0.00000688  188.12656606
     atom   21 type  2   force =    -0.00001530    0.00000675 -100.58623605
     atom   22 type  2   force =     0.00002291   -0.00003952   53.88643932
     atom   23 type  2   force =     0.00001303    0.00000656  188.12655919
     atom   24 type  2   force =    -0.00000852    0.00002098 -100.58625955
     The local contribution  to forces
     atom    1 type  1   force =     0.00003063   -0.00001697  167.22234376
     atom    2 type  1   force =    -0.00017046    0.00012568   54.00497209
     atom    3 type  1   force =    -0.00004358    0.00001879  -79.87291512
     atom    4 type  1   force =    -0.00018115    0.00008879   54.00497874
     atom    5 type  1   force =    -0.00006067    0.00003845  -79.87292570
     atom    6 type  1   force =     0.00002640   -0.00001620  167.22234140
     atom    7 type  1   force =    -0.00020750    0.00013775   54.00498152
     atom    8 type  1   force =    -0.00006823    0.00000644  -79.87291954
     atom    9 type  1   force =     0.00003267   -0.00002168  167.22234266
     atom   10 type  1   force =    -0.00019507    0.00009840   54.00497515
     atom   11 type  1   force =    -0.00003056    0.00002710  -79.87294338
     atom   12 type  1   force =     0.00003601   -0.00001778  167.22233752
     atom   13 type  2   force =     0.00025571   -0.00015132  -53.82001572
     atom   14 type  2   force =     0.00003832   -0.00003166 -187.66948575
     atom   15 type  2   force =     0.00007738   -0.00003137  100.50947654
     atom   16 type  2   force =     0.00007696   -0.00005851  100.50948886
     atom   17 type  2   force =     0.00025307   -0.00012074  -53.82003186
     atom   18 type  2   force =     0.00005950   -0.00002445 -187.66948263
     atom   19 type  2   force =     0.00023728   -0.00015859  -53.82003345
     atom   20 type  2   force =     0.00005859   -0.00002106 -187.66949040
     atom   21 type  2   force =     0.00009544   -0.00005266  100.50946107
     atom   22 type  2   force =     0.00022132   -0.00010205  -53.82001781
     atom   23 type  2   force =     0.00003556   -0.00003450 -187.66948370
     atom   24 type  2   force =     0.00008883   -0.00006708  100.50948402
     The core correction contribution to forces
     atom    1 type  1   force =    -0.00000071    0.00000041   -0.00039547
     atom    2 type  1   force =     0.00000938   -0.00000540   -0.00237398
     atom    3 type  1   force =     0.00000622   -0.00000358   -0.00567636
     atom    4 type  1   force =     0.00000937   -0.00000542   -0.00237398
     atom    5 type  1   force =     0.00000620   -0.00000360   -0.00567635
     atom    6 type  1   force =    -0.00000071    0.00000041   -0.00039547
     atom    7 type  1   force =     0.00000935   -0.00000539   -0.00237398
     atom    8 type  1   force =     0.00000623   -0.00000360   -0.00567637
     atom    9 type  1   force =    -0.00000072    0.00000041   -0.00039547
     atom   10 type  1   force =     0.00000936   -0.00000540   -0.00237400
     atom   11 type  1   force =     0.00000624   -0.00000361   -0.00567638
     atom   12 type  1   force =    -0.00000071    0.00000041   -0.00039548
     atom   13 type  2   force =    -0.00000631    0.00000363    0.00098080
     atom   14 type  2   force =    -0.00000083    0.00000048    0.00843882
     atom   15 type  2   force =    -0.00000238    0.00000136    0.00161503
     atom   16 type  2   force =    -0.00000237    0.00000138    0.00161502
     atom   17 type  2   force =    -0.00000630    0.00000366    0.00098080
     atom   18 type  2   force =    -0.00000084    0.00000048    0.00843882
     atom   19 type  2   force =    -0.00000633    0.00000366    0.00098079
     atom   20 type  2   force =    -0.00000083    0.00000048    0.00843883
     atom   21 type  2   force =    -0.00000238    0.00000138    0.00161503
     atom   22 type  2   force =    -0.00000634    0.00000366    0.00098079
     atom   23 type  2   force =    -0.00000082    0.00000048    0.00843882
     atom   24 type  2   force =    -0.00000239    0.00000138    0.00161502
     The Hubbard contrib.    to forces
     atom    1 type  1   force =     0.00000000    0.00000000    0.00000000
     atom    2 type  1   force =     0.00000000    0.00000000    0.00000000
     atom    3 type  1   force =     0.00000000    0.00000000    0.00000000
     atom    4 type  1   force =     0.00000000    0.00000000    0.00000000
     atom    5 type  1   force =     0.00000000    0.00000000    0.00000000
     atom    6 type  1   force =     0.00000000    0.00000000    0.00000000
     atom    7 type  1   force =     0.00000000    0.00000000    0.00000000
     atom    8 type  1   force =     0.00000000    0.00000000    0.00000000
     atom    9 type  1   force =     0.00000000    0.00000000    0.00000000
     atom   10 type  1   force =     0.00000000    0.00000000    0.00000000
     atom   11 type  1   force =     0.00000000    0.00000000    0.00000000
     atom   12 type  1   force =     0.00000000    0.00000000    0.00000000
     atom   13 type  2   force =     0.00000000    0.00000000    0.00000000
     atom   14 type  2   force =     0.00000000    0.00000000    0.00000000
     atom   15 type  2   force =     0.00000000    0.00000000    0.00000000
     atom   16 type  2   force =     0.00000000    0.00000000    0.00000000
     atom   17 type  2   force =     0.00000000    0.00000000    0.00000000
     atom   18 type  2   force =     0.00000000    0.00000000    0.00000000
     atom   19 type  2   force =     0.00000000    0.00000000    0.00000000
     atom   20 type  2   force =     0.00000000    0.00000000    0.00000000
     atom   21 type  2   force =     0.00000000    0.00000000    0.00000000
     atom   22 type  2   force =     0.00000000    0.00000000    0.00000000
     atom   23 type  2   force =     0.00000000    0.00000000    0.00000000
     atom   24 type  2   force =     0.00000000    0.00000000    0.00000000
     The SCF correction term to forces
     atom    1 type  1   force =     0.00000001   -0.00000003    0.00001450
     atom    2 type  1   force =    -0.00000024    0.00000009    0.00002882
     atom    3 type  1   force =     0.00000097   -0.00000060    0.00002925
     atom    4 type  1   force =    -0.00000017    0.00000015    0.00002877
     atom    5 type  1   force =     0.00000101   -0.00000052    0.00002925
     atom    6 type  1   force =     0.00000011   -0.00000002    0.00001446
     atom    7 type  1   force =     0.00000075   -0.00000038    0.00002856
     atom    8 type  1   force =    -0.00000104    0.00000062    0.00002952
     atom    9 type  1   force =    -0.00000003    0.00000011    0.00001468
     atom   10 type  1   force =     0.00000067   -0.00000043    0.00002865
     atom   11 type  1   force =    -0.00000107    0.00000062    0.00003037
     atom   12 type  1   force =    -0.00000013   -0.00000002    0.00001477
     atom   13 type  2   force =    -0.00000037    0.00000013    0.00003409
     atom   14 type  2   force =     0.00000049   -0.00000033    0.00001837
     atom   15 type  2   force =    -0.00000039    0.00000016    0.00003158
     atom   16 type  2   force =    -0.00000042    0.00000031    0.00003166
     atom   17 type  2   force =    -0.00000024    0.00000022    0.00003414
     atom   18 type  2   force =     0.00000035   -0.00000015    0.00001832
     atom   19 type  2   force =     0.00000077   -0.00000042    0.00003407
     atom   20 type  2   force =    -0.00000052    0.00000022    0.00001806
     atom   21 type  2   force =     0.00000031   -0.00000030    0.00003156
     atom   22 type  2   force =     0.00000064   -0.00000039    0.00003435
     atom   23 type  2   force =    -0.00000053    0.00000041    0.00001820
     atom   24 type  2   force =     0.00000038   -0.00000007    0.00003162

     Total force =     0.066516     Total SCF correction =     0.000133

     Writing all to output data dir ./temp/GaAs_111_M0D002Ha.save/

     init_run     :     27.08s CPU     18.14s WALL (       1 calls)
     electrons    :   2277.76s CPU   1414.02s WALL (       1 calls)
     forces       :     12.34s CPU      7.76s WALL (       1 calls)

     Called by init_run:
     wfcinit      :     16.25s CPU     10.55s WALL (       1 calls)
     potinit      :      3.71s CPU      2.02s WALL (       1 calls)
     hinit0       :      6.69s CPU      5.12s WALL (       1 calls)

     Called by electrons:
     c_bands      :   1884.60s CPU   1205.39s WALL (      49 calls)
     sum_band     :    382.70s CPU    199.41s WALL (      49 calls)
     v_of_rho     :      6.93s CPU      5.85s WALL (      49 calls)
     mix_rho      :      2.48s CPU      2.41s WALL (      49 calls)

     Called by c_bands:
     init_us_2    :     26.51s CPU     13.35s WALL (     700 calls)
     init_us_2:cp :     26.51s CPU     13.34s WALL (     700 calls)
     cegterg      :   1777.86s CPU   1129.00s WALL (     343 calls)

     Called by *egterg:
     cdiaghg      :     65.41s CPU     39.36s WALL (    1461 calls)
     h_psi        :   1447.08s CPU    836.72s WALL (    1475 calls)
     g_psi        :      6.35s CPU      3.19s WALL (    1125 calls)

     Called by h_psi:
     h_psi:calbec :     86.30s CPU     78.81s WALL (    1475 calls)
     vloc_psi     :   1261.92s CPU    661.25s WALL (    1475 calls)
     add_vuspsi   :     86.05s CPU     86.31s WALL (    1475 calls)

     General routines
     calbec       :     89.13s CPU     81.50s WALL (    1503 calls)
     fft          :      3.53s CPU      4.07s WALL (     501 calls)
     ffts         :      0.19s CPU      0.22s WALL (      49 calls)
     fftw         :   1216.11s CPU    642.91s WALL (  376826 calls)

     Parallel routines

     PWSCF        :  38m40.14s CPU  24m 6.46s WALL


   This run was terminated on:  19:13:17  20Mar2025            

=------------------------------------------------------------------------------=
   JOB DONE.
=------------------------------------------------------------------------------=
