
     Program PWSCF v.7.2 starts on 20Mar2025 at 17:26:15 

     This program is part of the open-source Quantum ESPRESSO suite
     for quantum simulation of materials; please cite
         "P. Giannozzi et al., J. Phys.:Condens. Matter 21 395502 (2009);
         "P. Giannozzi et al., J. Phys.:Condens. Matter 29 465901 (2017);
         "P. Giannozzi et al., J. Chem. Phys. 152 154105 (2020);
          URL http://www.quantum-espresso.org", 
     in publications or presentations arising from this work. More details at
     http://www.quantum-espresso.org/quote

     Parallel version (MPI & OpenMP), running on     288 processor cores
     Number of MPI processes:               144
     Threads/MPI process:                     2

     MPI processes distributed on     6 nodes
     714382 MiB available memory on the printing compute node when the environment starts

     Reading input from GaAs111_0D002Ha.scf.in

     Current dimensions of program PWSCF are:
     Max number of different atomic species (ntypx) = 10
     Max number of k-points (npk) =  40000
     Max angular momentum in pseudopotentials (lmaxx) =  4
     Found identity + (  0.5000 -0.5000  0.0000) symmetry
     This is a supercell, fractional translations are disabled

     K-points division:     npool     =       8
     R & G space division:  proc/nbgrp/npool/nimage =      18
     Subspace diagonalization in iterative solution of the eigenvalue problem:
     one sub-group per band group will be used
     ELPA distributed-memory algorithm (size of sub-group:  2*  2 procs)


     Parallelization info
     --------------------
     sticks:   dense  smooth     PW     G-vecs:    dense   smooth      PW
     Min         288     288     78                82920    82920   11697
     Max         289     289     80                82953    82953   11708
     Sum        5197    5197   1417              1492917  1492917  210619

     Using Slab Decomposition



     bravais-lattice index     =            0
     lattice parameter (alat)  =      15.3672  a.u.
     unit-cell volume          =   15443.3545 (a.u.)^3
     number of atoms/cell      =           24
     number of atomic types    =            2
     number of electrons       =       336.00
     number of Kohn-Sham states=          202
     kinetic-energy cutoff     =      80.0000  Ry
     charge density cutoff     =     320.0000  Ry
     scf convergence threshold =      1.0E-09
     mixing beta               =       0.7000
     number of iterations used =            8  plain     mixing
     Exchange-correlation= PBE
                           (   1   4   3   4   0   0   0)

     celldm(1)=  15.367226  celldm(2)=   0.000000  celldm(3)=   0.000000
     celldm(4)=   0.000000  celldm(5)=   0.000000  celldm(6)=   0.000000

     crystal axes: (cart. coord. in units of alat)
               a(1) = (   1.000000   0.000000   0.000000 )  
               a(2) = (  -0.500000   0.866025   0.000000 )  
               a(3) = (   0.000000   0.000000   4.913881 )  

     reciprocal axes: (cart. coord. in units 2 pi/alat)
               b(1) = (  1.000000  0.577350 -0.000000 )  
               b(2) = (  0.000000  1.154701  0.000000 )  
               b(3) = (  0.000000 -0.000000  0.203505 )  


     PseudoPot. # 1 for Ga read from file:
     ./Ga.upf
     MD5 check sum: 93d095ea82f116b4e2622455073fb9ee
     Pseudo is Norm-conserving + core correction, Zval = 13.0
     Generated using ONCVPSP code by D. R. Hamann
     Using radial grid of 1902 points,  6 beta functions with: 
                l(1) =   0
                l(2) =   0
                l(3) =   1
                l(4) =   1
                l(5) =   2
                l(6) =   2

     PseudoPot. # 2 for As read from file:
     ./As.upf
     MD5 check sum: 280d9fd8ba68a23ae96e751fcede625c
     Pseudo is Norm-conserving + core correction, Zval = 15.0
     Generated using ONCVPSP code by D. R. Hamann
     Using radial grid of 1350 points,  6 beta functions with: 
                l(1) =   0
                l(2) =   0
                l(3) =   1
                l(4) =   1
                l(5) =   2
                l(6) =   2

     atomic species   valence    mass     pseudopotential
        Ga            13.00    69.72000     Ga( 1.00)
        As            15.00    74.92000     As( 1.00)

     No symmetry found



   Cartesian axes

     site n.     atom                  positions (alat units)
         1           Ga  tau(   1) = (   0.0000000   0.0000000   1.8955990  )
         2           Ga  tau(   2) = (   0.0000000   0.5773504   2.3038472  )
         3           Ga  tau(   3) = (   0.5000000   0.2886751   2.7120955  )
         4           Ga  tau(   4) = (   0.7500000   0.1443376   2.3038472  )
         5           Ga  tau(   5) = (  -0.2500001   0.7216878   2.7120955  )
         6           Ga  tau(   6) = (   0.2499999   0.4330127   1.8955990  )
         7           Ga  tau(   7) = (   0.4999999   0.5773504   2.3038472  )
         8           Ga  tau(   8) = (  -0.0000001   0.2886751   2.7120955  )
         9           Ga  tau(   9) = (   0.5000000   0.0000000   1.8955990  )
        10           Ga  tau(  10) = (   0.2500000   0.1443376   2.3038472  )
        11           Ga  tau(  11) = (   0.2500000   0.7216878   2.7120955  )
        12           Ga  tau(  12) = (  -0.2500000   0.4330127   1.8955990  )
        13           As  tau(  13) = (   0.7500000   0.1443376   2.6100335  )
        14           As  tau(  14) = (  -0.2500001   0.7216878   3.0182815  )
        15           As  tau(  15) = (   0.2499999   0.4330127   2.2017852  )
        16           As  tau(  16) = (   0.0000000   0.0000000   2.2017852  )
        17           As  tau(  17) = (   0.0000000   0.5773504   2.6100335  )
        18           As  tau(  18) = (   0.5000000   0.2886751   3.0182815  )
        19           As  tau(  19) = (   0.2500000   0.1443376   2.6100335  )
        20           As  tau(  20) = (   0.2500000   0.7216878   3.0182815  )
        21           As  tau(  21) = (  -0.2500000   0.4330127   2.2017852  )
        22           As  tau(  22) = (   0.4999999   0.5773504   2.6100335  )
        23           As  tau(  23) = (  -0.0000001   0.2886751   3.0182815  )
        24           As  tau(  24) = (   0.5000000   0.0000000   2.2017852  )

     number of k points=    50  Fermi-Dirac smearing, width (Ry)=  0.0000
                       cart. coord. in units 2pi/alat
        k(    1) = (   0.0500000   0.0866025   0.0000000), wk =   0.0400000
        k(    2) = (   0.0500000   0.2020726   0.0000000), wk =   0.0400000
        k(    3) = (   0.0500000   0.3175426   0.0000000), wk =   0.0400000
        k(    4) = (   0.0500000   0.4330127   0.0000000), wk =   0.0400000
        k(    5) = (   0.0500000   0.5484828   0.0000000), wk =   0.0400000
        k(    6) = (   0.0500000  -0.4907477   0.0000000), wk =   0.0400000
        k(    7) = (   0.0500000  -0.3752777   0.0000000), wk =   0.0400000
        k(    8) = (   0.0500000  -0.2598076   0.0000000), wk =   0.0400000
        k(    9) = (   0.0500000  -0.1443376   0.0000000), wk =   0.0400000
        k(   10) = (   0.0500000  -0.0288675   0.0000000), wk =   0.0400000
        k(   11) = (   0.1500000   0.1443376   0.0000000), wk =   0.0400000
        k(   12) = (   0.1500000   0.2598076   0.0000000), wk =   0.0400000
        k(   13) = (   0.1500000   0.3752777   0.0000000), wk =   0.0400000
        k(   14) = (   0.1500000   0.4907477   0.0000000), wk =   0.0400000
        k(   15) = (   0.1500000   0.6062178   0.0000000), wk =   0.0400000
        k(   16) = (   0.1500000  -0.4330127   0.0000000), wk =   0.0400000
        k(   17) = (   0.1500000  -0.3175426   0.0000000), wk =   0.0400000
        k(   18) = (   0.1500000  -0.2020726   0.0000000), wk =   0.0400000
        k(   19) = (   0.1500000  -0.0866025   0.0000000), wk =   0.0400000
        k(   20) = (   0.1500000   0.0288675   0.0000000), wk =   0.0400000
        k(   21) = (   0.2500000   0.2020726   0.0000000), wk =   0.0400000
        k(   22) = (   0.2500000   0.3175426   0.0000000), wk =   0.0400000
        k(   23) = (   0.2500000   0.4330127   0.0000000), wk =   0.0400000
        k(   24) = (   0.2500000   0.5484828   0.0000000), wk =   0.0400000
        k(   25) = (   0.2500000   0.6639528   0.0000000), wk =   0.0400000
        k(   26) = (   0.2500000  -0.3752777   0.0000000), wk =   0.0400000
        k(   27) = (   0.2500000  -0.2598076   0.0000000), wk =   0.0400000
        k(   28) = (   0.2500000  -0.1443376   0.0000000), wk =   0.0400000
        k(   29) = (   0.2500000  -0.0288675   0.0000000), wk =   0.0400000
        k(   30) = (   0.2500000   0.0866025   0.0000000), wk =   0.0400000
        k(   31) = (   0.3500000   0.2598076   0.0000000), wk =   0.0400000
        k(   32) = (   0.3500000   0.3752777   0.0000000), wk =   0.0400000
        k(   33) = (   0.3500000   0.4907477   0.0000000), wk =   0.0400000
        k(   34) = (   0.3500000   0.6062178   0.0000000), wk =   0.0400000
        k(   35) = (   0.3500000   0.7216878   0.0000000), wk =   0.0400000
        k(   36) = (   0.3500000  -0.3175426   0.0000000), wk =   0.0400000
        k(   37) = (   0.3500000  -0.2020726   0.0000000), wk =   0.0400000
        k(   38) = (   0.3500000  -0.0866025   0.0000000), wk =   0.0400000
        k(   39) = (   0.3500000   0.0288675   0.0000000), wk =   0.0400000
        k(   40) = (   0.3500000   0.1443376   0.0000000), wk =   0.0400000
        k(   41) = (   0.4500000   0.3175426   0.0000000), wk =   0.0400000
        k(   42) = (   0.4500000   0.4330127   0.0000000), wk =   0.0400000
        k(   43) = (   0.4500000   0.5484828   0.0000000), wk =   0.0400000
        k(   44) = (   0.4500000   0.6639528   0.0000000), wk =   0.0400000
        k(   45) = (   0.4500000   0.7794229   0.0000000), wk =   0.0400000
        k(   46) = (   0.4500000  -0.2598076   0.0000000), wk =   0.0400000
        k(   47) = (   0.4500000  -0.1443376   0.0000000), wk =   0.0400000
        k(   48) = (   0.4500000  -0.0288675   0.0000000), wk =   0.0400000
        k(   49) = (   0.4500000   0.0866025   0.0000000), wk =   0.0400000
        k(   50) = (   0.4500000   0.2020726   0.0000000), wk =   0.0400000

     Dense  grid:  1492917 G-vectors     FFT dimensions: (  90,  90, 432)

     Estimated max dynamical RAM per process >     508.21 MB

     Estimated total dynamical RAM >      68.98 GB

     Initial potential from superposition of free atoms

     starting charge     335.9650, renormalised to     336.0000

     negative rho (up, down):  1.366E-04 0.000E+00

     Adding external electric field

     Computed dipole along edir(3) : 
        Dipole               -0.0747 Ry au,         -0.1897 Debye
        Dipole field         -0.0001 Ry au, 

        E field amplitude [Ha a.u.]:  2.0000E-03
        Potential amp.        0.2490 Ry
        Total length         60.4102 bohr

     Starting wfcs are  216 atomic wfcs

     total cpu time spent up to now is       17.1 secs

     Self-consistent Calculation

     iteration #  1     ecut=    80.00 Ry     beta= 0.70
     Davidson diagonalization with overlap
     ethr =  1.00E-02,  avg # of iterations =  3.0

     Threshold (ethr) on eigenvalues was too large:
     Diagonalizing with lowered threshold

     Davidson diagonalization with overlap
     ethr =  3.72E-04,  avg # of iterations =  2.5

     negative rho (up, down):  3.385E-05 0.000E+00

     Adding external electric field

     Computed dipole along edir(3) : 
        Dipole                5.1309 Ry au,         13.0414 Debye
        Dipole field          0.0042 Ry au, 

        E field amplitude [Ha a.u.]:  2.0000E-03
        Potential amp.       -0.2628 Ry
        Total length         60.4102 bohr


     total cpu time spent up to now is       74.9 secs

     total energy              =   -4145.88957209 Ry
     estimated scf accuracy    <       1.27001058 Ry

     iteration #  2     ecut=    80.00 Ry     beta= 0.70
     Davidson diagonalization with overlap
     ethr =  3.78E-04,  avg # of iterations = 18.8

     negative rho (up, down):  1.399E-05 0.000E+00

     Adding external electric field

     Computed dipole along edir(3) : 
        Dipole               -4.2652 Ry au,        -10.8410 Debye
        Dipole field         -0.0035 Ry au, 

        E field amplitude [Ha a.u.]:  2.0000E-03
        Potential amp.        0.6610 Ry
        Total length         60.4102 bohr


     total cpu time spent up to now is      139.0 secs

     total energy              =   -4136.55865878 Ry
     estimated scf accuracy    <     323.17570646 Ry

     iteration #  3     ecut=    80.00 Ry     beta= 0.70
     Davidson diagonalization with overlap
     ethr =  3.78E-04,  avg # of iterations = 17.0

     Adding external electric field

     Computed dipole along edir(3) : 
        Dipole               -1.2813 Ry au,         -3.2567 Debye
        Dipole field         -0.0010 Ry au, 

        E field amplitude [Ha a.u.]:  2.0000E-03
        Potential amp.        0.3676 Ry
        Total length         60.4102 bohr


     total cpu time spent up to now is      196.7 secs

     total energy              =   -4142.54098775 Ry
     estimated scf accuracy    <     133.23035074 Ry

     iteration #  4     ecut=    80.00 Ry     beta= 0.70
     Davidson diagonalization with overlap
     ethr =  3.78E-04,  avg # of iterations =  8.7

     Adding external electric field

     Computed dipole along edir(3) : 
        Dipole               -0.3087 Ry au,         -0.7847 Debye
        Dipole field         -0.0003 Ry au, 

        E field amplitude [Ha a.u.]:  2.0000E-03
        Potential amp.        0.2720 Ry
        Total length         60.4102 bohr


     total cpu time spent up to now is      237.1 secs

     total energy              =   -4146.59443352 Ry
     estimated scf accuracy    <       1.47251514 Ry

     iteration #  5     ecut=    80.00 Ry     beta= 0.70
     Davidson diagonalization with overlap
     ethr =  3.78E-04,  avg # of iterations =  1.1

     Adding external electric field

     Computed dipole along edir(3) : 
        Dipole               -0.4083 Ry au,         -1.0378 Debye
        Dipole field         -0.0003 Ry au, 

        E field amplitude [Ha a.u.]:  2.0000E-03
        Potential amp.        0.2818 Ry
        Total length         60.4102 bohr


     total cpu time spent up to now is      262.6 secs

     total energy              =   -4146.61100508 Ry
     estimated scf accuracy    <       0.28022451 Ry

     iteration #  6     ecut=    80.00 Ry     beta= 0.70
     Davidson diagonalization with overlap
     ethr =  8.34E-05,  avg # of iterations =  7.5

     Adding external electric field

     Computed dipole along edir(3) : 
        Dipole               -0.3372 Ry au,         -0.8571 Debye
        Dipole field         -0.0003 Ry au, 

        E field amplitude [Ha a.u.]:  2.0000E-03
        Potential amp.        0.2748 Ry
        Total length         60.4102 bohr


     total cpu time spent up to now is      294.2 secs

     total energy              =   -4146.61083009 Ry
     estimated scf accuracy    <       0.24979407 Ry

     iteration #  7     ecut=    80.00 Ry     beta= 0.70
     Davidson diagonalization with overlap
     ethr =  7.43E-05,  avg # of iterations =  5.1

     Adding external electric field

     Computed dipole along edir(3) : 
        Dipole               -0.3549 Ry au,         -0.9020 Debye
        Dipole field         -0.0003 Ry au, 

        E field amplitude [Ha a.u.]:  2.0000E-03
        Potential amp.        0.2765 Ry
        Total length         60.4102 bohr


     total cpu time spent up to now is      325.4 secs

     total energy              =   -4146.60505864 Ry
     estimated scf accuracy    <       0.08085485 Ry

     iteration #  8     ecut=    80.00 Ry     beta= 0.70
     Davidson diagonalization with overlap
     ethr =  2.41E-05,  avg # of iterations = 11.8

     Adding external electric field

     Computed dipole along edir(3) : 
        Dipole               -0.3686 Ry au,         -0.9369 Debye
        Dipole field         -0.0003 Ry au, 

        E field amplitude [Ha a.u.]:  2.0000E-03
        Potential amp.        0.2779 Ry
        Total length         60.4102 bohr


     total cpu time spent up to now is      361.3 secs

     total energy              =   -4146.60121539 Ry
     estimated scf accuracy    <       0.03299352 Ry

     iteration #  9     ecut=    80.00 Ry     beta= 0.70
     Davidson diagonalization with overlap
     ethr =  9.82E-06,  avg # of iterations = 11.8

     Adding external electric field

     Computed dipole along edir(3) : 
        Dipole               -0.3206 Ry au,         -0.8149 Debye
        Dipole field         -0.0003 Ry au, 

        E field amplitude [Ha a.u.]:  2.0000E-03
        Potential amp.        0.2732 Ry
        Total length         60.4102 bohr


     total cpu time spent up to now is      396.1 secs

     total energy              =   -4146.60065282 Ry
     estimated scf accuracy    <       0.01167914 Ry

     iteration # 10     ecut=    80.00 Ry     beta= 0.70
     Davidson diagonalization with overlap
     c_bands:  1 eigenvalues not converged
     ethr =  3.48E-06,  avg # of iterations =  6.6

     Adding external electric field

     Computed dipole along edir(3) : 
        Dipole               -0.1855 Ry au,         -0.4714 Debye
        Dipole field         -0.0002 Ry au, 

        E field amplitude [Ha a.u.]:  2.0000E-03
        Potential amp.        0.2599 Ry
        Total length         60.4102 bohr


     total cpu time spent up to now is      427.4 secs

     total energy              =   -4146.60062494 Ry
     estimated scf accuracy    <       0.00393346 Ry

     iteration # 11     ecut=    80.00 Ry     beta= 0.70
     Davidson diagonalization with overlap
     ethr =  1.17E-06,  avg # of iterations =  6.4

     negative rho (up, down):  8.897E-03 0.000E+00

     Adding external electric field

     Computed dipole along edir(3) : 
        Dipole               -0.0247 Ry au,         -0.0627 Debye
        Dipole field         -0.0000 Ry au, 

        E field amplitude [Ha a.u.]:  2.0000E-03
        Potential amp.        0.2441 Ry
        Total length         60.4102 bohr


     total cpu time spent up to now is      458.0 secs

     total energy              =   -4146.60027728 Ry
     estimated scf accuracy    <       0.00280551 Ry

     iteration # 12     ecut=    80.00 Ry     beta= 0.70
     Davidson diagonalization with overlap
     ethr =  8.35E-07,  avg # of iterations = 13.8

     negative rho (up, down):  1.840E-03 0.000E+00

     Adding external electric field

     Computed dipole along edir(3) : 
        Dipole                0.1229 Ry au,          0.3125 Debye
        Dipole field          0.0001 Ry au, 

        E field amplitude [Ha a.u.]:  2.0000E-03
        Potential amp.        0.2296 Ry
        Total length         60.4102 bohr


     total cpu time spent up to now is      496.3 secs

     total energy              =   -4146.60018556 Ry
     estimated scf accuracy    <       0.00163642 Ry

     iteration # 13     ecut=    80.00 Ry     beta= 0.70
     Davidson diagonalization with overlap
     ethr =  4.87E-07,  avg # of iterations = 12.6

     negative rho (up, down):  8.285E-04 0.000E+00

     Adding external electric field

     Computed dipole along edir(3) : 
        Dipole                0.1231 Ry au,          0.3129 Debye
        Dipole field          0.0001 Ry au, 

        E field amplitude [Ha a.u.]:  2.0000E-03
        Potential amp.        0.2295 Ry
        Total length         60.4102 bohr


     total cpu time spent up to now is      533.3 secs

     total energy              =   -4146.60017828 Ry
     estimated scf accuracy    <       0.00309253 Ry

     iteration # 14     ecut=    80.00 Ry     beta= 0.70
     Davidson diagonalization with overlap
     c_bands:  1 eigenvalues not converged
     ethr =  4.87E-07,  avg # of iterations =  4.0

     negative rho (up, down):  5.394E-04 0.000E+00

     Adding external electric field

     Computed dipole along edir(3) : 
        Dipole                0.1219 Ry au,          0.3099 Debye
        Dipole field          0.0001 Ry au, 

        E field amplitude [Ha a.u.]:  2.0000E-03
        Potential amp.        0.2297 Ry
        Total length         60.4102 bohr


     total cpu time spent up to now is      563.4 secs

     total energy              =   -4146.60042530 Ry
     estimated scf accuracy    <       0.00010658 Ry

     iteration # 15     ecut=    80.00 Ry     beta= 0.70
     Davidson diagonalization with overlap
     ethr =  3.17E-08,  avg # of iterations =  5.1

     negative rho (up, down):  9.184E-05 0.000E+00

     Adding external electric field

     Computed dipole along edir(3) : 
        Dipole                0.1314 Ry au,          0.3340 Debye
        Dipole field          0.0001 Ry au, 

        E field amplitude [Ha a.u.]:  2.0000E-03
        Potential amp.        0.2287 Ry
        Total length         60.4102 bohr


     total cpu time spent up to now is      594.5 secs

     total energy              =   -4146.60043819 Ry
     estimated scf accuracy    <       0.00000336 Ry

     iteration # 16     ecut=    80.00 Ry     beta= 0.70
     Davidson diagonalization with overlap
     ethr =  9.99E-10,  avg # of iterations = 10.7

     negative rho (up, down):  5.063E-05 0.000E+00

     Adding external electric field

     Computed dipole along edir(3) : 
        Dipole                0.1327 Ry au,          0.3373 Debye
        Dipole field          0.0001 Ry au, 

        E field amplitude [Ha a.u.]:  2.0000E-03
        Potential amp.        0.2286 Ry
        Total length         60.4102 bohr


     total cpu time spent up to now is      632.7 secs

     total energy              =   -4146.60043864 Ry
     estimated scf accuracy    <       0.00000188 Ry

     iteration # 17     ecut=    80.00 Ry     beta= 0.70
     Davidson diagonalization with overlap
     ethr =  5.60E-10,  avg # of iterations =  2.0

     negative rho (up, down):  4.402E-05 0.000E+00

     Adding external electric field

     Computed dipole along edir(3) : 
        Dipole                0.1314 Ry au,          0.3339 Debye
        Dipole field          0.0001 Ry au, 

        E field amplitude [Ha a.u.]:  2.0000E-03
        Potential amp.        0.2287 Ry
        Total length         60.4102 bohr


     total cpu time spent up to now is      659.9 secs

     total energy              =   -4146.60043848 Ry
     estimated scf accuracy    <       0.00000175 Ry

     iteration # 18     ecut=    80.00 Ry     beta= 0.70
     Davidson diagonalization with overlap
     ethr =  5.20E-10,  avg # of iterations =  2.0

     negative rho (up, down):  1.100E-05 0.000E+00

     Adding external electric field

     Computed dipole along edir(3) : 
        Dipole                0.1332 Ry au,          0.3386 Debye
        Dipole field          0.0001 Ry au, 

        E field amplitude [Ha a.u.]:  2.0000E-03
        Potential amp.        0.2285 Ry
        Total length         60.4102 bohr


     total cpu time spent up to now is      686.6 secs

     total energy              =   -4146.60043859 Ry
     estimated scf accuracy    <       0.00000221 Ry

     iteration # 19     ecut=    80.00 Ry     beta= 0.70
     Davidson diagonalization with overlap
     ethr =  5.20E-10,  avg # of iterations =  2.5

     negative rho (up, down):  9.323E-06 0.000E+00

     Adding external electric field

     Computed dipole along edir(3) : 
        Dipole                0.1334 Ry au,          0.3392 Debye
        Dipole field          0.0001 Ry au, 

        E field amplitude [Ha a.u.]:  2.0000E-03
        Potential amp.        0.2285 Ry
        Total length         60.4102 bohr


     total cpu time spent up to now is      713.9 secs

     total energy              =   -4146.60043870 Ry
     estimated scf accuracy    <       0.00000026 Ry

     iteration # 20     ecut=    80.00 Ry     beta= 0.70
     Davidson diagonalization with overlap
     ethr =  7.59E-11,  avg # of iterations =  2.0

     negative rho (up, down):  1.558E-06 0.000E+00

     Adding external electric field

     Computed dipole along edir(3) : 
        Dipole                0.1335 Ry au,          0.3393 Debye
        Dipole field          0.0001 Ry au, 

        E field amplitude [Ha a.u.]:  2.0000E-03
        Potential amp.        0.2285 Ry
        Total length         60.4102 bohr


     total cpu time spent up to now is      740.5 secs

     total energy              =   -4146.60043871 Ry
     estimated scf accuracy    <       0.00000016 Ry

     iteration # 21     ecut=    80.00 Ry     beta= 0.70
     Davidson diagonalization with overlap
     ethr =  4.79E-11,  avg # of iterations =  3.4

     negative rho (up, down):  1.935E-06 0.000E+00

     Adding external electric field

     Computed dipole along edir(3) : 
        Dipole                0.1334 Ry au,          0.3390 Debye
        Dipole field          0.0001 Ry au, 

        E field amplitude [Ha a.u.]:  2.0000E-03
        Potential amp.        0.2285 Ry
        Total length         60.4102 bohr


     total cpu time spent up to now is      769.7 secs

     total energy              =   -4146.60043872 Ry
     estimated scf accuracy    <       0.00000005 Ry

     iteration # 22     ecut=    80.00 Ry     beta= 0.70
     Davidson diagonalization with overlap
     ethr =  1.50E-11,  avg # of iterations =  2.0

     negative rho (up, down):  1.294E-06 0.000E+00

     Adding external electric field

     Computed dipole along edir(3) : 
        Dipole                0.1333 Ry au,          0.3389 Debye
        Dipole field          0.0001 Ry au, 

        E field amplitude [Ha a.u.]:  2.0000E-03
        Potential amp.        0.2285 Ry
        Total length         60.4102 bohr


     total cpu time spent up to now is      796.3 secs

     total energy              =   -4146.60043872 Ry
     estimated scf accuracy    <       0.00000004 Ry

     iteration # 23     ecut=    80.00 Ry     beta= 0.70
     Davidson diagonalization with overlap
     ethr =  1.08E-11,  avg # of iterations =  2.0

     negative rho (up, down):  1.141E-06 0.000E+00

     Adding external electric field

     Computed dipole along edir(3) : 
        Dipole                0.1334 Ry au,          0.3391 Debye
        Dipole field          0.0001 Ry au, 

        E field amplitude [Ha a.u.]:  2.0000E-03
        Potential amp.        0.2285 Ry
        Total length         60.4102 bohr


     total cpu time spent up to now is      822.8 secs

     total energy              =   -4146.60043872 Ry
     estimated scf accuracy    <       0.00000003 Ry

     iteration # 24     ecut=    80.00 Ry     beta= 0.70
     Davidson diagonalization with overlap
     ethr =  8.18E-12,  avg # of iterations =  1.0

     negative rho (up, down):  1.861E-07 0.000E+00

     Adding external electric field

     Computed dipole along edir(3) : 
        Dipole                0.1334 Ry au,          0.3391 Debye
        Dipole field          0.0001 Ry au, 

        E field amplitude [Ha a.u.]:  2.0000E-03
        Potential amp.        0.2285 Ry
        Total length         60.4102 bohr


     total cpu time spent up to now is      847.3 secs

     total energy              =   -4146.60043873 Ry
     estimated scf accuracy    <          1.4E-09 Ry

     iteration # 25     ecut=    80.00 Ry     beta= 0.70
     Davidson diagonalization with overlap
     ethr =  4.31E-13,  avg # of iterations =  2.0

     Adding external electric field

     Computed dipole along edir(3) : 
        Dipole                0.1333 Ry au,          0.3389 Debye
        Dipole field          0.0001 Ry au, 

        E field amplitude [Ha a.u.]:  2.0000E-03
        Potential amp.        0.2285 Ry
        Total length         60.4102 bohr


     total cpu time spent up to now is      874.3 secs

     End of self-consistent calculation

          k = 0.0500 0.0866 0.0000 (186449 PWs)   bands (ev):

   -37.2495 -37.2495 -37.2495 -37.2495 -37.2495 -37.2488 -37.2488 -37.2488
   -37.0594 -37.0593 -37.0593 -37.0591 -37.0575 -37.0575 -37.0573 -37.0573
   -36.9988 -36.9983 -36.9983 -36.9983 -36.7256 -36.7250 -36.7250 -36.7250
   -36.7138 -36.7138 -36.7138 -36.7135 -36.7135 -36.7134 -36.7134 -36.7134
   -36.6916 -36.6916 -36.6916 -36.6915 -36.6915 -36.6905 -36.6905 -36.6905
   -36.6078 -36.6078 -36.6078 -36.6078 -36.6078 -36.6067 -36.6067 -36.6067
   -36.5670 -36.5669 -36.5669 -36.5666 -36.5666 -36.5666 -36.5665 -36.5665
   -36.5634 -36.5628 -36.5628 -36.5628 -16.6658 -16.6658 -16.6654 -16.6641
   -16.6638 -16.6499 -16.6499 -16.6499 -16.5363 -16.5333 -16.5332 -16.5332
   -16.5260 -16.5247 -16.5247 -16.5200 -16.5200 -16.5189 -16.5189 -16.5172
   -16.3383 -16.3381 -16.3381 -16.3233 -16.2894 -16.2893 -16.2893 -16.2807
   -16.2799 -16.2609 -16.2609 -16.2608 -16.2338 -16.2338 -16.2337 -16.2239
   -16.2236 -16.2180 -16.2179 -16.2179 -16.0542 -16.0539 -16.0539 -16.0103
   -15.9932 -15.9927 -15.9686 -15.9685 -15.9685 -15.9676 -15.9675 -15.9671
   -15.9318 -15.9317 -15.9317 -15.9190 -15.9189 -15.9189 -15.9187 -15.9185
   -13.5813 -12.8770 -12.1819 -12.1819 -12.1317 -11.8449 -11.8449 -11.8262
   -11.5143 -11.1923 -11.1919 -11.1919  -8.0365  -7.8534  -7.8363  -7.8363
    -7.5003  -7.4486  -7.4486  -6.5473  -6.5473  -6.5286  -6.1897  -4.3862
    -4.3808  -4.3808  -4.1074  -3.8036  -3.7351  -3.7351  -3.4020  -3.2668
    -3.2668  -3.0495  -3.0414  -3.0414  -2.9616  -2.9616  -2.9234  -2.5782
    -2.4089  -2.2913  -2.2913  -2.2819  -2.1198  -2.0024  -1.8956  -1.7790
    -1.7307  -1.7307  -1.0122  -0.9569  -0.9569  -0.5059  -0.3931  -0.3292
    -0.1194   0.3553   0.3553   0.4659   0.6208   0.6208   0.7165   1.3451
     1.4718   1.4718   1.4783   1.6499   1.6683   1.6683   2.1802   2.3518
     2.3592   2.6817   2.7158   2.7158   2.7528   3.0459   3.1588   3.1805
     3.2876   3.3712

          k = 0.0500 0.2021 0.0000 (186558 PWs)   bands (ev):

   -37.2495 -37.2495 -37.2495 -37.2495 -37.2494 -37.2488 -37.2488 -37.2488
   -37.0594 -37.0593 -37.0593 -37.0591 -37.0574 -37.0574 -37.0573 -37.0573
   -36.9987 -36.9984 -36.9983 -36.9983 -36.7256 -36.7251 -36.7250 -36.7250
   -36.7138 -36.7138 -36.7138 -36.7135 -36.7135 -36.7134 -36.7134 -36.7134
   -36.6916 -36.6916 -36.6915 -36.6915 -36.6915 -36.6906 -36.6905 -36.6905
   -36.6078 -36.6078 -36.6078 -36.6078 -36.6077 -36.6067 -36.6067 -36.6067
   -36.5670 -36.5669 -36.5669 -36.5666 -36.5666 -36.5666 -36.5665 -36.5665
   -36.5634 -36.5628 -36.5628 -36.5628 -16.6657 -16.6652 -16.6646 -16.6642
   -16.6630 -16.6508 -16.6506 -16.6506 -16.5360 -16.5333 -16.5332 -16.5332
   -16.5258 -16.5245 -16.5243 -16.5201 -16.5199 -16.5192 -16.5191 -16.5176
   -16.3371 -16.3369 -16.3366 -16.3233 -16.2899 -16.2897 -16.2894 -16.2821
   -16.2785 -16.2618 -16.2615 -16.2613 -16.2332 -16.2331 -16.2330 -16.2246
   -16.2235 -16.2189 -16.2187 -16.2186 -16.0533 -16.0526 -16.0517 -16.0142
   -15.9917 -15.9901 -15.9701 -15.9699 -15.9696 -15.9688 -15.9673 -15.9668
   -15.9313 -15.9312 -15.9310 -15.9197 -15.9196 -15.9194 -15.9190 -15.9186
   -13.5234 -12.8258 -12.3358 -12.2236 -12.1147 -11.9132 -11.8550 -11.8106
   -11.4896 -11.1924 -11.1888 -11.1884  -7.9890  -7.8308  -7.7902  -7.7414
    -7.4624  -7.3508  -7.2354  -6.5848  -6.5557  -6.5179  -6.1894  -4.4364
    -4.3961  -4.3959  -4.1999  -3.9592  -3.8623  -3.7417  -3.6785  -3.5354
    -3.2479  -3.0575  -3.0047  -2.9924  -2.9804  -2.8546  -2.8190  -2.8112
    -2.5777  -2.4394  -2.3170  -2.3117  -2.2989  -2.0614  -1.9881  -1.7197
    -1.6145  -1.5042  -1.1805  -1.0651  -0.9239  -0.7233  -0.4290   0.1029
     0.3282   0.3902   0.6583   0.6597   0.7988   0.8901   0.9634   1.1993
     1.2337   1.5269   1.5338   1.7080   1.7509   1.7920   1.8419   2.3589
     2.4332   2.7241   2.7452   2.8257   2.8404   2.9008   3.0809   3.1715
     3.2320   3.2602

          k = 0.0500 0.3175 0.0000 (186601 PWs)   bands (ev):

   -37.2495 -37.2495 -37.2494 -37.2494 -37.2494 -37.2489 -37.2489 -37.2488
   -37.0594 -37.0593 -37.0592 -37.0592 -37.0574 -37.0574 -37.0574 -37.0573
   -36.9987 -36.9984 -36.9984 -36.9983 -36.7255 -36.7251 -36.7251 -36.7250
   -36.7138 -36.7137 -36.7137 -36.7135 -36.7135 -36.7134 -36.7134 -36.7134
   -36.6916 -36.6916 -36.6915 -36.6914 -36.6914 -36.6907 -36.6906 -36.6906
   -36.6078 -36.6078 -36.6077 -36.6077 -36.6076 -36.6069 -36.6068 -36.6068
   -36.5670 -36.5669 -36.5668 -36.5666 -36.5666 -36.5666 -36.5666 -36.5665
   -36.5633 -36.5629 -36.5628 -36.5628 -16.6655 -16.6644 -16.6641 -16.6633
   -16.6615 -16.6522 -16.6517 -16.6517 -16.5356 -16.5336 -16.5333 -16.5332
   -16.5254 -16.5243 -16.5236 -16.5203 -16.5197 -16.5197 -16.5194 -16.5181
   -16.3355 -16.3351 -16.3341 -16.3237 -16.2907 -16.2904 -16.2895 -16.2843
   -16.2762 -16.2634 -16.2623 -16.2620 -16.2322 -16.2321 -16.2319 -16.2257
   -16.2233 -16.2202 -16.2199 -16.2196 -16.0519 -16.0508 -16.0478 -16.0198
   -15.9890 -15.9865 -15.9723 -15.9721 -15.9710 -15.9709 -15.9671 -15.9667
   -15.9305 -15.9304 -15.9299 -15.9212 -15.9207 -15.9202 -15.9191 -15.9188
   -13.4208 -12.7358 -12.5472 -12.2620 -12.1097 -12.0404 -11.8641 -11.7948
   -11.4475 -11.2085 -11.1839 -11.1835  -7.9067  -7.7899  -7.7277  -7.6082
    -7.3841  -7.2284  -6.9722  -6.5559  -6.5204  -6.5104  -6.2071  -4.5603
    -4.4457  -4.4307  -4.4299  -4.1353  -4.0423  -4.0221  -3.8478  -3.5835
    -3.5759  -3.1810  -2.9250  -2.9033  -2.8823  -2.8731  -2.7184  -2.7072
    -2.7036  -2.6876  -2.3463  -2.3447  -2.2886  -2.1726  -2.0758  -1.6202
    -1.4686  -1.3639  -1.2173  -1.1563  -1.0546  -0.8666  -0.4879   0.4504
     0.4507   0.4575   0.7221   0.7282   0.7776   1.2053   1.3426   1.4335
     1.4577   1.6232   1.6962   1.6980   1.8516   1.8962   1.9818   2.3013
     2.5253   2.6113   2.6257   2.8904   2.9469   2.9556   3.0652   3.1023
     3.1635   3.4098

          k = 0.0500 0.4330 0.0000 (186662 PWs)   bands (ev):

   -37.2495 -37.2495 -37.2494 -37.2493 -37.2493 -37.2490 -37.2489 -37.2489
   -37.0594 -37.0593 -37.0592 -37.0592 -37.0574 -37.0574 -37.0574 -37.0573
   -36.9986 -36.9985 -36.9984 -36.9983 -36.7254 -36.7252 -36.7251 -36.7250
   -36.7138 -36.7137 -36.7137 -36.7135 -36.7135 -36.7135 -36.7134 -36.7134
   -36.6916 -36.6916 -36.6914 -36.6913 -36.6912 -36.6908 -36.6907 -36.6907
   -36.6078 -36.6078 -36.6076 -36.6076 -36.6074 -36.6070 -36.6069 -36.6069
   -36.5669 -36.5669 -36.5668 -36.5667 -36.5666 -36.5666 -36.5666 -36.5666
   -36.5632 -36.5630 -36.5628 -36.5628 -16.6652 -16.6646 -16.6629 -16.6619
   -16.6596 -16.6541 -16.6530 -16.6530 -16.5351 -16.5339 -16.5333 -16.5332
   -16.5250 -16.5241 -16.5227 -16.5203 -16.5202 -16.5201 -16.5194 -16.5186
   -16.3339 -16.3334 -16.3311 -16.3248 -16.2915 -16.2912 -16.2894 -16.2865
   -16.2732 -16.2657 -16.2631 -16.2627 -16.2310 -16.2310 -16.2307 -16.2271
   -16.2228 -16.2217 -16.2212 -16.2207 -16.0506 -16.0491 -16.0426 -16.0263
   -15.9855 -15.9827 -15.9756 -15.9739 -15.9737 -15.9722 -15.9670 -15.9666
   -15.9296 -15.9296 -15.9283 -15.9232 -15.9218 -15.9210 -15.9192 -15.9190
   -13.2767 -12.7749 -12.6113 -12.2900 -12.2030 -12.1108 -11.8711 -11.7828
   -11.3925 -11.2462 -11.1801 -11.1785  -7.7966  -7.7467  -7.6697  -7.5517
    -7.2994  -7.1165  -6.7660  -6.5490  -6.5068  -6.2762  -6.1836  -4.8826
    -4.6930  -4.4809  -4.4498  -4.4164  -4.2008  -4.0920  -4.0688  -4.0188
    -3.4288  -3.1038  -3.0423  -2.9140  -2.8219  -2.7939  -2.7667  -2.6164
    -2.6075  -2.5812  -2.4212  -2.3867  -2.3504  -2.1697  -2.1378  -1.6844
    -1.4926  -1.4153  -1.3251  -1.1779  -0.7966  -0.7202  -0.5671   0.0576
     0.3728   0.4003   0.5631   0.8340   0.9999   1.0440   1.6586   1.7551
     1.7568   1.8050   1.9583   1.9722   2.1203   2.1712   2.1827   2.3740
     2.4884   2.5462   2.7380   2.7851   2.8195   3.1628   3.1805   3.2650
     3.3708   3.5450

          k = 0.0500 0.5485 0.0000 (186672 PWs)   bands (ev):

   -37.2495 -37.2495 -37.2493 -37.2493 -37.2492 -37.2491 -37.2489 -37.2489
   -37.0593 -37.0593 -37.0592 -37.0592 -37.0574 -37.0574 -37.0574 -37.0574
   -36.9986 -36.9985 -36.9984 -36.9983 -36.7253 -36.7253 -36.7251 -36.7250
   -36.7138 -36.7137 -36.7136 -36.7136 -36.7135 -36.7135 -36.7134 -36.7134
   -36.6916 -36.6916 -36.6913 -36.6913 -36.6911 -36.6910 -36.6907 -36.6907
   -36.6078 -36.6078 -36.6076 -36.6075 -36.6073 -36.6072 -36.6069 -36.6069
   -36.5669 -36.5669 -36.5668 -36.5667 -36.5666 -36.5666 -36.5666 -36.5666
   -36.5631 -36.5631 -36.5628 -36.5628 -16.6649 -16.6648 -16.6621 -16.6610
   -16.6574 -16.6563 -16.6538 -16.6537 -16.5346 -16.5344 -16.5333 -16.5332
   -16.5245 -16.5242 -16.5218 -16.5210 -16.5206 -16.5202 -16.5191 -16.5190
   -16.3331 -16.3324 -16.3280 -16.3267 -16.2919 -16.2916 -16.2888 -16.2882
   -16.2701 -16.2685 -16.2634 -16.2630 -16.2303 -16.2299 -16.2295 -16.2287
   -16.2226 -16.2221 -16.2220 -16.2217 -16.0499 -16.0482 -16.0364 -16.0330
   -15.9815 -15.9795 -15.9789 -15.9771 -15.9748 -15.9729 -15.9670 -15.9666
   -15.9291 -15.9291 -15.9263 -15.9253 -15.9225 -15.9215 -15.9191 -15.9191
   -13.0961 -12.9944 -12.4589 -12.3754 -12.3029 -12.1124 -11.8745 -11.7772
   -11.3311 -11.3006 -11.1783 -11.1759  -7.7224  -7.6740  -7.6395  -7.6173
    -7.2512  -7.0570  -6.5432  -6.5385  -6.5060  -6.4308  -5.6865  -5.4165
    -4.7479  -4.5780  -4.5027  -4.3894  -4.3315  -4.3073  -4.1664  -4.0752
    -3.2444  -3.1438  -3.0781  -3.0735  -2.7375  -2.7142  -2.6241  -2.5797
    -2.5481  -2.5373  -2.4872  -2.4161  -2.4051  -2.3156  -1.8939  -1.7866
    -1.7480  -1.5801  -1.2041  -1.0596  -0.7041  -0.6578  -0.2457  -0.1745
    -0.0043   0.1602   0.7152   0.8078   0.9584   1.0109   1.9004   1.9069
     1.9261   1.9807   2.0124   2.0145   2.0892   2.1238   2.3624   2.4410
     2.5429   2.5723   2.9925   3.0236   3.1494   3.2971   3.3172   3.3373
     3.3958   3.6289

          k = 0.0500-0.4907 0.0000 (186681 PWs)   bands (ev):

   -37.2495 -37.2495 -37.2494 -37.2493 -37.2492 -37.2491 -37.2489 -37.2489
   -37.0593 -37.0593 -37.0592 -37.0592 -37.0574 -37.0574 -37.0574 -37.0573
   -36.9986 -36.9985 -36.9984 -36.9983 -36.7254 -36.7253 -36.7251 -36.7250
   -36.7138 -36.7137 -36.7136 -36.7136 -36.7135 -36.7135 -36.7134 -36.7134
   -36.6916 -36.6916 -36.6914 -36.6913 -36.6911 -36.6909 -36.6907 -36.6907
   -36.6078 -36.6078 -36.6076 -36.6075 -36.6073 -36.6071 -36.6069 -36.6069
   -36.5669 -36.5669 -36.5668 -36.5667 -36.5666 -36.5666 -36.5666 -36.5666
   -36.5632 -36.5630 -36.5628 -36.5628 -16.6651 -16.6647 -16.6624 -16.6614
   -16.6585 -16.6552 -16.6535 -16.6535 -16.5349 -16.5341 -16.5333 -16.5331
   -16.5246 -16.5243 -16.5221 -16.5209 -16.5208 -16.5199 -16.5194 -16.5186
   -16.3333 -16.3328 -16.3295 -16.3256 -16.2917 -16.2915 -16.2892 -16.2874
   -16.2717 -16.2671 -16.2633 -16.2629 -16.2306 -16.2302 -16.2302 -16.2279
   -16.2225 -16.2222 -16.2218 -16.2212 -16.0501 -16.0485 -16.0396 -16.0296
   -15.9835 -15.9808 -15.9776 -15.9753 -15.9745 -15.9727 -15.9670 -15.9666
   -15.9293 -15.9292 -15.9273 -15.9242 -15.9223 -15.9213 -15.9192 -15.9190
   -13.1905 -12.8868 -12.5380 -12.2985 -12.2894 -12.1118 -11.8733 -11.7791
   -11.3621 -11.2719 -11.1789 -11.1768  -7.7354  -7.7309  -7.6500  -7.5730
    -7.2682  -7.0778  -6.6545  -6.5454  -6.5061  -6.3419  -5.9457  -5.1449
    -4.7317  -4.5196  -4.4976  -4.4343  -4.2793  -4.1836  -4.1456  -4.0736
    -3.3406  -3.0843  -3.0768  -3.0218  -2.7714  -2.7454  -2.7008  -2.5908
    -2.5685  -2.4969  -2.4607  -2.4450  -2.4052  -2.2356  -2.0243  -1.7490
    -1.5880  -1.5469  -1.2528  -1.1061  -0.7502  -0.6114  -0.4879  -0.0900
     0.2209   0.2376   0.6331   0.8964   0.9080   1.0399   1.8208   1.8246
     1.8309   1.9133   2.0540   2.0716   2.0901   2.0916   2.3546   2.4613
     2.5001   2.5713   2.7751   2.8992   3.0099   3.2121   3.2578   3.3945
     3.4465   3.4520

          k = 0.0500-0.3753 0.0000 (186663 PWs)   bands (ev):

   -37.2495 -37.2495 -37.2494 -37.2494 -37.2493 -37.2489 -37.2489 -37.2489
   -37.0594 -37.0593 -37.0592 -37.0592 -37.0574 -37.0574 -37.0574 -37.0573
   -36.9987 -36.9984 -36.9984 -36.9983 -36.7255 -36.7252 -36.7251 -36.7250
   -36.7138 -36.7137 -36.7137 -36.7135 -36.7135 -36.7134 -36.7134 -36.7134
   -36.6916 -36.6916 -36.6914 -36.6914 -36.6913 -36.6907 -36.6907 -36.6906
   -36.6078 -36.6078 -36.6077 -36.6076 -36.6075 -36.6069 -36.6068 -36.6068
   -36.5669 -36.5669 -36.5668 -36.5667 -36.5666 -36.5666 -36.5666 -36.5665
   -36.5633 -36.5629 -36.5628 -36.5628 -16.6653 -16.6644 -16.6634 -16.6627
   -16.6606 -16.6531 -16.6524 -16.6523 -16.5354 -16.5337 -16.5333 -16.5331
   -16.5250 -16.5243 -16.5231 -16.5208 -16.5200 -16.5197 -16.5195 -16.5181
   -16.3346 -16.3342 -16.3326 -16.3241 -16.2911 -16.2908 -16.2895 -16.2854
   -16.2747 -16.2645 -16.2627 -16.2624 -16.2316 -16.2315 -16.2313 -16.2264
   -16.2231 -16.2209 -16.2206 -16.2201 -16.0512 -16.0498 -16.0454 -16.0229
   -15.9873 -15.9847 -15.9739 -15.9731 -15.9721 -15.9716 -15.9671 -15.9666
   -15.9300 -15.9300 -15.9291 -15.9222 -15.9213 -15.9206 -15.9191 -15.9189
   -13.3537 -12.6775 -12.6609 -12.2777 -12.1190 -12.1099 -11.8679 -11.7881
   -11.4213 -11.2248 -11.1818 -11.1808  -7.8544  -7.7672  -7.6967  -7.5632
    -7.3398  -7.1686  -6.8671  -6.5530  -6.5081  -6.3837  -6.2327  -4.6441
    -4.6326  -4.4561  -4.4453  -4.2824  -4.1230  -4.0562  -3.9880  -3.8169
    -3.5076  -3.1386  -2.9787  -2.8744  -2.8496  -2.8258  -2.8008  -2.6558
    -2.6553  -2.6532  -2.3813  -2.3653  -2.2581  -2.2285  -2.1173  -1.6240
    -1.4460  -1.3819  -1.2358  -1.2354  -0.9511  -0.8292  -0.5250   0.2431
     0.4865   0.5049   0.5438   0.7769   0.9327   1.1690   1.4462   1.6478
     1.6852   1.7182   1.7350   1.8669   2.0046   2.0728   2.0919   2.2436
     2.5232   2.5418   2.6836   2.8181   2.8545   3.0540   3.1334   3.1338
     3.2493   3.5068

          k = 0.0500-0.2598 0.0000 (186566 PWs)   bands (ev):

   -37.2495 -37.2495 -37.2494 -37.2494 -37.2494 -37.2489 -37.2488 -37.2488
   -37.0594 -37.0593 -37.0592 -37.0592 -37.0575 -37.0574 -37.0573 -37.0573
   -36.9987 -36.9984 -36.9984 -36.9983 -36.7255 -36.7251 -36.7250 -36.7250
   -36.7138 -36.7138 -36.7137 -36.7135 -36.7135 -36.7134 -36.7134 -36.7134
   -36.6916 -36.6916 -36.6915 -36.6914 -36.6914 -36.6906 -36.6906 -36.6906
   -36.6078 -36.6078 -36.6078 -36.6077 -36.6076 -36.6068 -36.6068 -36.6068
   -36.5670 -36.5669 -36.5669 -36.5667 -36.5666 -36.5666 -36.5665 -36.5665
   -36.5633 -36.5629 -36.5628 -36.5628 -16.6656 -16.6645 -16.6643 -16.6641
   -16.6623 -16.6514 -16.6512 -16.6511 -16.5358 -16.5334 -16.5333 -16.5331
   -16.5255 -16.5245 -16.5239 -16.5205 -16.5199 -16.5195 -16.5191 -16.5176
   -16.3363 -16.3360 -16.3354 -16.3235 -16.2903 -16.2900 -16.2895 -16.2832
   -16.2774 -16.2625 -16.2619 -16.2617 -16.2328 -16.2326 -16.2325 -16.2251
   -16.2234 -16.2195 -16.2193 -16.2190 -16.0526 -16.0517 -16.0499 -16.0168
   -15.9904 -15.9884 -15.9711 -15.9710 -15.9702 -15.9696 -15.9672 -15.9667
   -15.9309 -15.9309 -15.9305 -15.9204 -15.9202 -15.9197 -15.9191 -15.9187
   -13.4775 -12.7855 -12.4374 -12.2437 -12.1110 -11.9706 -11.8597 -11.8025
   -11.4705 -11.1978 -11.1863 -11.1861  -7.9518  -7.8117  -7.7600  -7.6736
    -7.4264  -7.2908  -7.0992  -6.5796  -6.5570  -6.5136  -6.1943  -4.4901
    -4.4116  -4.4107  -4.2982  -4.0311  -3.9525  -3.9123  -3.6921  -3.6329
    -3.3263  -3.2199  -2.9679  -2.9527  -2.9353  -2.7856  -2.7588  -2.7587
    -2.7287  -2.5725  -2.3266  -2.3186  -2.3155  -2.1030  -2.0367  -1.6680
    -1.5397  -1.3425  -1.2811  -1.1429  -0.8982  -0.8814  -0.4549   0.3103
     0.4195   0.5669   0.6582   0.6888   0.8219   1.0075   1.1824   1.2314
     1.4241   1.4996   1.5701   1.7111   1.7618   1.8146   1.8825   2.3409
     2.4896   2.6503   2.6945   2.8773   2.8856   2.9734   3.0528   3.1108
     3.1686   3.3282

          k = 0.0500-0.1443 0.0000 (186480 PWs)   bands (ev):

   -37.2495 -37.2495 -37.2495 -37.2495 -37.2495 -37.2488 -37.2488 -37.2488
   -37.0594 -37.0593 -37.0593 -37.0592 -37.0575 -37.0575 -37.0573 -37.0573
   -36.9987 -36.9984 -36.9983 -36.9983 -36.7256 -36.7251 -36.7250 -36.7250
   -36.7138 -36.7138 -36.7138 -36.7135 -36.7135 -36.7135 -36.7134 -36.7134
   -36.6916 -36.6916 -36.6915 -36.6915 -36.6915 -36.6905 -36.6905 -36.6905
   -36.6078 -36.6078 -36.6078 -36.6078 -36.6077 -36.6067 -36.6067 -36.6067
   -36.5670 -36.5669 -36.5669 -36.5666 -36.5666 -36.5666 -36.5665 -36.5665
   -36.5634 -36.5628 -36.5628 -36.5628 -16.6657 -16.6654 -16.6652 -16.6641
   -16.6635 -16.6503 -16.6502 -16.6501 -16.5362 -16.5333 -16.5333 -16.5332
   -16.5258 -16.5247 -16.5245 -16.5203 -16.5200 -16.5191 -16.5189 -16.5172
   -16.3377 -16.3376 -16.3375 -16.3233 -16.2896 -16.2894 -16.2893 -16.2813
   -16.2793 -16.2613 -16.2611 -16.2610 -16.2335 -16.2335 -16.2334 -16.2242
   -16.2236 -16.2183 -16.2183 -16.2182 -16.0538 -16.0533 -16.0530 -16.0119
   -15.9926 -15.9916 -15.9692 -15.9691 -15.9690 -15.9680 -15.9674 -15.9669
   -15.9316 -15.9315 -15.9314 -15.9193 -15.9192 -15.9190 -15.9189 -15.9185
   -13.5581 -12.8564 -12.2482 -12.2026 -12.1215 -11.8710 -11.8500 -11.8187
   -11.5043 -11.1911 -11.1909 -11.1904  -8.0174  -7.8449  -7.8164  -7.7979
    -7.4878  -7.4047  -7.3574  -6.5675  -6.5524  -6.5228  -6.1887  -4.4028
    -4.3869  -4.3858  -4.1403  -3.8804  -3.7851  -3.7125  -3.5660  -3.3890
    -3.2625  -3.0310  -3.0235  -3.0163  -2.9160  -2.8872  -2.8648  -2.7978
    -2.4718  -2.3055  -2.3000  -2.2871  -2.2674  -2.0387  -1.9366  -1.7580
    -1.6801  -1.6359  -1.0890  -0.9979  -0.9436  -0.5942  -0.4072  -0.1282
     0.0888   0.3690   0.4780   0.6358   0.6455   0.7320   0.8639   1.1985
     1.3683   1.4940   1.5066   1.6720   1.7021   1.7190   2.0213   2.3606
     2.3883   2.7245   2.7276   2.7630   2.8187   2.9424   3.1270   3.2011
     3.2646   3.3002

          k = 0.0500-0.0289 0.0000 (186385 PWs)   bands (ev):

   -37.2495 -37.2495 -37.2495 -37.2495 -37.2495 -37.2488 -37.2488 -37.2488
   -37.0594 -37.0593 -37.0593 -37.0591 -37.0575 -37.0575 -37.0573 -37.0573
   -36.9988 -36.9983 -36.9983 -36.9983 -36.7256 -36.7250 -36.7250 -36.7250
   -36.7138 -36.7138 -36.7138 -36.7135 -36.7135 -36.7135 -36.7134 -36.7134
   -36.6916 -36.6916 -36.6916 -36.6916 -36.6915 -36.6905 -36.6905 -36.6905
   -36.6078 -36.6078 -36.6078 -36.6078 -36.6078 -36.6067 -36.6067 -36.6067
   -36.5670 -36.5669 -36.5669 -36.5666 -36.5666 -36.5666 -36.5665 -36.5665
   -36.5634 -36.5628 -36.5628 -36.5628 -16.6658 -16.6658 -16.6657 -16.6641
   -16.6640 -16.6498 -16.6497 -16.6497 -16.5363 -16.5333 -16.5332 -16.5332
   -16.5260 -16.5247 -16.5247 -16.5201 -16.5201 -16.5189 -16.5188 -16.5171
   -16.3384 -16.3384 -16.3384 -16.3233 -16.2892 -16.2892 -16.2892 -16.2804
   -16.2801 -16.2607 -16.2607 -16.2607 -16.2339 -16.2339 -16.2338 -16.2237
   -16.2237 -16.2178 -16.2178 -16.2178 -16.0543 -16.0543 -16.0542 -16.0093
   -15.9936 -15.9934 -15.9683 -15.9682 -15.9682 -15.9675 -15.9673 -15.9673
   -15.9319 -15.9318 -15.9318 -15.9189 -15.9189 -15.9187 -15.9186 -15.9184
   -13.5930 -12.8873 -12.1625 -12.1456 -12.1456 -11.8392 -11.8331 -11.8331
   -11.5194 -11.1930 -11.1930 -11.1928  -8.0462  -7.8549  -7.8549  -7.8494
    -7.4977  -7.4977  -7.4804  -6.5413  -6.5348  -6.5348  -6.1905  -4.3791
    -4.3790  -4.3784  -4.0929  -3.7464  -3.7464  -3.7213  -3.2664  -3.2664
    -3.2047  -3.0551  -3.0551  -3.0454  -3.0220  -2.9852  -2.9852  -2.4446
    -2.3791  -2.2851  -2.2818  -2.2818  -2.0792  -1.9271  -1.8730  -1.7809
    -1.7809  -1.7650  -0.9637  -0.9637  -0.9427  -0.5084  -0.4054  -0.3821
    -0.2508   0.3105   0.3486   0.3486   0.5794   0.6132   0.6132   1.4607
     1.4607   1.4623   1.5089   1.6424   1.6424   1.6481   2.2789   2.3406
     2.3506   2.6466   2.6962   2.7093   2.7093   3.0747   3.1654   3.1974
     3.2957   3.3389

          k = 0.1500 0.1443 0.0000 (186558 PWs)   bands (ev):

   -37.2495 -37.2495 -37.2495 -37.2495 -37.2494 -37.2488 -37.2488 -37.2488
   -37.0594 -37.0593 -37.0593 -37.0591 -37.0574 -37.0574 -37.0573 -37.0573
   -36.9987 -36.9984 -36.9983 -36.9983 -36.7256 -36.7251 -36.7250 -36.7250
   -36.7138 -36.7138 -36.7138 -36.7135 -36.7135 -36.7134 -36.7134 -36.7134
   -36.6916 -36.6916 -36.6915 -36.6915 -36.6915 -36.6906 -36.6905 -36.6905
   -36.6078 -36.6078 -36.6078 -36.6078 -36.6077 -36.6067 -36.6067 -36.6067
   -36.5670 -36.5669 -36.5669 -36.5666 -36.5666 -36.5666 -36.5665 -36.5665
   -36.5634 -36.5628 -36.5628 -36.5628 -16.6657 -16.6652 -16.6646 -16.6642
   -16.6630 -16.6508 -16.6506 -16.6506 -16.5360 -16.5333 -16.5332 -16.5332
   -16.5258 -16.5245 -16.5243 -16.5201 -16.5199 -16.5192 -16.5191 -16.5176
   -16.3371 -16.3369 -16.3366 -16.3233 -16.2899 -16.2897 -16.2894 -16.2821
   -16.2785 -16.2618 -16.2615 -16.2613 -16.2332 -16.2331 -16.2330 -16.2246
   -16.2235 -16.2189 -16.2187 -16.2186 -16.0533 -16.0526 -16.0517 -16.0142
   -15.9917 -15.9901 -15.9701 -15.9699 -15.9696 -15.9688 -15.9673 -15.9668
   -15.9313 -15.9312 -15.9310 -15.9197 -15.9196 -15.9194 -15.9190 -15.9186
   -13.5234 -12.8258 -12.3358 -12.2236 -12.1147 -11.9132 -11.8550 -11.8106
   -11.4896 -11.1924 -11.1888 -11.1884  -7.9890  -7.8308  -7.7902  -7.7414
    -7.4624  -7.3508  -7.2354  -6.5848  -6.5557  -6.5179  -6.1894  -4.4364
    -4.3961  -4.3959  -4.1999  -3.9592  -3.8623  -3.7417  -3.6785  -3.5354
    -3.2479  -3.0575  -3.0047  -2.9924  -2.9804  -2.8546  -2.8190  -2.8112
    -2.5777  -2.4394  -2.3170  -2.3117  -2.2989  -2.0614  -1.9881  -1.7197
    -1.6145  -1.5042  -1.1805  -1.0651  -0.9239  -0.7233  -0.4290   0.1029
     0.3282   0.3902   0.6583   0.6597   0.7988   0.8901   0.9634   1.1993
     1.2337   1.5269   1.5338   1.7080   1.7509   1.7920   1.8419   2.3589
     2.4332   2.7241   2.7452   2.8257   2.8404   2.9008   3.0809   3.1715
     3.2320   3.2604

          k = 0.1500 0.2598 0.0000 (186586 PWs)   bands (ev):

   -37.2495 -37.2495 -37.2495 -37.2494 -37.2494 -37.2489 -37.2489 -37.2488
   -37.0594 -37.0593 -37.0593 -37.0592 -37.0574 -37.0574 -37.0574 -37.0573
   -36.9987 -36.9984 -36.9984 -36.9983 -36.7255 -36.7251 -36.7251 -36.7250
   -36.7138 -36.7137 -36.7137 -36.7135 -36.7135 -36.7134 -36.7134 -36.7134
   -36.6916 -36.6915 -36.6915 -36.6914 -36.6914 -36.6906 -36.6906 -36.6906
   -36.6078 -36.6078 -36.6078 -36.6077 -36.6076 -36.6068 -36.6068 -36.6068
   -36.5670 -36.5669 -36.5669 -36.5666 -36.5666 -36.5666 -36.5666 -36.5665
   -36.5633 -36.5629 -36.5629 -36.5628 -16.6651 -16.6650 -16.6643 -16.6632
   -16.6619 -16.6517 -16.6517 -16.6515 -16.5357 -16.5334 -16.5334 -16.5332
   -16.5255 -16.5240 -16.5240 -16.5199 -16.5199 -16.5197 -16.5192 -16.5182
   -16.3360 -16.3349 -16.3349 -16.3236 -16.2906 -16.2898 -16.2898 -16.2839
   -16.2767 -16.2627 -16.2627 -16.2618 -16.2324 -16.2324 -16.2321 -16.2254
   -16.2234 -16.2201 -16.2195 -16.2195 -16.0526 -16.0497 -16.0497 -16.0186
   -15.9899 -15.9869 -15.9723 -15.9723 -15.9701 -15.9686 -15.9686 -15.9667
   -15.9307 -15.9303 -15.9303 -15.9208 -15.9207 -15.9194 -15.9194 -15.9188
   -13.4434 -12.7556 -12.4114 -12.4114 -12.0396 -11.9521 -11.9521 -11.7759
   -11.4566 -11.1938 -11.1938 -11.1868  -7.9245  -7.8209  -7.6698  -7.6698
    -7.4685  -7.0967  -7.0967  -6.5735  -6.5735  -6.4869  -6.2007  -4.5986
    -4.4005  -4.4005  -4.3801  -4.1527  -4.0158  -3.8052  -3.8052  -3.4757
    -3.4565  -3.4565  -2.9496  -2.9056  -2.9056  -2.8740  -2.7335  -2.7335
    -2.7327  -2.5734  -2.3250  -2.3162  -2.3162  -2.2358  -2.0381  -1.6979
    -1.3991  -1.3284  -1.3284  -1.0095  -1.0095  -0.9631  -0.5020   0.4188
     0.4685   0.6967   0.6967   0.7333   0.9523   0.9523   1.3150   1.3150
     1.4354   1.4487   1.6355   1.6939   1.7792   1.9163   1.9163   2.3012
     2.5361   2.6128   2.7640   2.7640   2.8695   2.9628   2.9957   3.1154
     3.1154   3.3690

          k = 0.1500 0.3753 0.0000 (186604 PWs)   bands (ev):

   -37.2495 -37.2495 -37.2494 -37.2493 -37.2493 -37.2489 -37.2489 -37.2489
   -37.0594 -37.0593 -37.0593 -37.0592 -37.0574 -37.0574 -37.0574 -37.0573
   -36.9986 -36.9984 -36.9984 -36.9983 -36.7255 -36.7252 -36.7251 -36.7250
   -36.7138 -36.7137 -36.7137 -36.7135 -36.7135 -36.7135 -36.7135 -36.7134
   -36.6916 -36.6915 -36.6915 -36.6913 -36.6913 -36.6907 -36.6907 -36.6907
   -36.6078 -36.6078 -36.6077 -36.6075 -36.6075 -36.6069 -36.6069 -36.6069
   -36.5669 -36.5669 -36.5668 -36.5666 -36.5666 -36.5666 -36.5666 -36.5666
   -36.5632 -36.5629 -36.5629 -36.5628 -16.6649 -16.6644 -16.6641 -16.6616
   -16.6603 -16.6533 -16.6529 -16.6527 -16.5353 -16.5337 -16.5335 -16.5331
   -16.5252 -16.5238 -16.5233 -16.5203 -16.5199 -16.5195 -16.5195 -16.5189
   -16.3345 -16.3331 -16.3323 -16.3243 -16.2914 -16.2905 -16.2899 -16.2860
   -16.2741 -16.2644 -16.2635 -16.2624 -16.2314 -16.2314 -16.2307 -16.2266
   -16.2231 -16.2216 -16.2206 -16.2205 -16.0516 -16.0475 -16.0453 -16.0242
   -15.9874 -15.9831 -15.9753 -15.9748 -15.9707 -15.9707 -15.9684 -15.9668
   -15.9298 -15.9295 -15.9290 -15.9225 -15.9221 -15.9201 -15.9194 -15.9190
   -13.3204 -12.6488 -12.6330 -12.4682 -12.0977 -11.9859 -11.9828 -11.7478
   -11.4086 -11.2189 -11.1952 -11.1848  -7.8290  -7.7985  -7.6040  -7.5587
    -7.4364  -6.9717  -6.8657  -6.5306  -6.4665  -6.3985  -6.2474  -4.7947
    -4.7312  -4.4851  -4.4219  -4.3807  -4.0213  -4.0006  -3.8947  -3.7264
    -3.6841  -3.3311  -3.0591  -2.8675  -2.8297  -2.8100  -2.7986  -2.6479
    -2.6468  -2.6247  -2.4708  -2.3845  -2.2996  -2.2203  -2.0871  -1.7586
    -1.4539  -1.2782  -1.2318  -1.0443  -0.9904  -0.8832  -0.5929  -0.0318
     0.6089   0.7633   0.8292   1.0519   1.1015   1.1729   1.2708   1.4407
     1.5240   1.6607   1.8102   1.8991   2.0708   2.0961   2.1839   2.3520
     2.5062   2.5962   2.6963   2.7227   2.8669   2.8940   3.0843   3.1510
     3.1633   3.5199

          k = 0.1500 0.4907 0.0000 (186601 PWs)   bands (ev):

   -37.2495 -37.2495 -37.2494 -37.2492 -37.2492 -37.2491 -37.2490 -37.2490
   -37.0593 -37.0593 -37.0592 -37.0592 -37.0574 -37.0574 -37.0574 -37.0574
   -36.9986 -36.9985 -36.9984 -36.9983 -36.7254 -36.7252 -36.7251 -36.7250
   -36.7138 -36.7137 -36.7137 -36.7135 -36.7135 -36.7135 -36.7135 -36.7134
   -36.6915 -36.6915 -36.6914 -36.6912 -36.6911 -36.6909 -36.6908 -36.6908
   -36.6078 -36.6078 -36.6077 -36.6074 -36.6073 -36.6071 -36.6070 -36.6070
   -36.5669 -36.5669 -36.5668 -36.5667 -36.5666 -36.5666 -36.5666 -36.5666
   -36.5632 -36.5630 -36.5629 -36.5628 -16.6647 -16.6645 -16.6633 -16.6601
   -16.6584 -16.6552 -16.6541 -16.6539 -16.5348 -16.5341 -16.5335 -16.5331
   -16.5247 -16.5238 -16.5225 -16.5209 -16.5203 -16.5198 -16.5193 -16.5191
   -16.3334 -16.3316 -16.3294 -16.3257 -16.2920 -16.2912 -16.2896 -16.2879
   -16.2712 -16.2668 -16.2642 -16.2628 -16.2305 -16.2301 -16.2294 -16.2280
   -16.2231 -16.2226 -16.2216 -16.2214 -16.0509 -16.0459 -16.0399 -16.0305
   -15.9842 -15.9791 -15.9788 -15.9765 -15.9736 -15.9711 -15.9683 -15.9670
   -15.9289 -15.9288 -15.9274 -15.9244 -15.9233 -15.9206 -15.9194 -15.9192
   -13.1585 -12.8571 -12.5108 -12.5012 -12.2655 -12.0013 -11.9566 -11.7296
   -11.3511 -11.2639 -11.1961 -11.1833  -7.7781  -7.7132  -7.5623  -7.5602
    -7.3982  -6.8898  -6.6659  -6.4813  -6.4576  -6.3630  -5.9817  -5.2136
    -4.9155  -4.7185  -4.4153  -4.3215  -4.2094  -4.1592  -4.0016  -3.9611
    -3.4991  -3.1857  -3.1807  -3.0155  -2.8240  -2.7773  -2.7475  -2.6802
    -2.5830  -2.5798  -2.4431  -2.4403  -2.2839  -2.1851  -2.0247  -1.9259
    -1.6083  -1.3343  -1.3063  -0.8845  -0.8560  -0.6955  -0.4677  -0.3905
     0.2614   0.5754   0.8664   1.0521   1.1767   1.2869   1.6029   1.7088
     1.7343   1.9520   2.0090   2.0417   2.0806   2.0951   2.2033   2.4844
     2.5627   2.5728   2.6708   2.9239   3.1039   3.2245   3.2580   3.2838
     3.3264   3.4084

          k = 0.1500 0.6062 0.0000 (186657 PWs)   bands (ev):

   -37.2495 -37.2495 -37.2494 -37.2492 -37.2492 -37.2491 -37.2490 -37.2490
   -37.0593 -37.0593 -37.0592 -37.0592 -37.0574 -37.0574 -37.0574 -37.0573
   -36.9986 -36.9985 -36.9984 -36.9983 -36.7253 -36.7253 -36.7251 -36.7250
   -36.7137 -36.7137 -36.7136 -36.7136 -36.7135 -36.7135 -36.7134 -36.7134
   -36.6915 -36.6915 -36.6914 -36.6912 -36.6910 -36.6910 -36.6908 -36.6908
   -36.6078 -36.6078 -36.6077 -36.6074 -36.6072 -36.6072 -36.6070 -36.6070
   -36.5669 -36.5669 -36.5668 -36.5667 -36.5667 -36.5666 -36.5666 -36.5666
   -36.5631 -36.5631 -36.5629 -36.5627 -16.6646 -16.6646 -16.6630 -16.6597
   -16.6573 -16.6563 -16.6544 -16.6542 -16.5346 -16.5343 -16.5336 -16.5330
   -16.5243 -16.5240 -16.5216 -16.5214 -16.5213 -16.5196 -16.5196 -16.5187
   -16.3332 -16.3313 -16.3280 -16.3268 -16.2921 -16.2913 -16.2892 -16.2887
   -16.2696 -16.2682 -16.2643 -16.2629 -16.2303 -16.2294 -16.2291 -16.2287
   -16.2235 -16.2223 -16.2219 -16.2219 -16.0507 -16.0456 -16.0368 -16.0337
   -15.9824 -15.9806 -15.9772 -15.9769 -15.9753 -15.9713 -15.9682 -15.9670
   -15.9287 -15.9285 -15.9264 -15.9255 -15.9236 -15.9208 -15.9194 -15.9193
   -13.0648 -12.9639 -12.5079 -12.4327 -12.3503 -12.0051 -11.9509 -11.7256
   -11.3211 -11.2916 -11.1964 -11.1830  -7.7731  -7.6541  -7.6005  -7.5536
    -7.3882  -6.8721  -6.5560  -6.4683  -6.4562  -6.4518  -5.7329  -5.4740
    -4.9368  -4.7731  -4.3799  -4.3129  -4.2830  -4.2070  -4.0269  -3.9962
    -3.3897  -3.2775  -3.1231  -3.0735  -2.8074  -2.7594  -2.7462  -2.7360
    -2.5823  -2.5604  -2.4429  -2.3458  -2.2808  -2.2579  -1.9736  -1.9007
    -1.7621  -1.3642  -1.2492  -0.8363  -0.8030  -0.7483  -0.4873  -0.2260
     0.0203   0.5060   0.9297   0.9948   1.2359   1.2785   1.6868   1.7456
     1.8630   1.9763   1.9998   2.0248   2.0750   2.0975   2.2940   2.4626
     2.5923   2.5997   2.7584   3.0583   3.1853   3.1875   3.2356   3.3047
     3.4063   3.5782

          k = 0.1500-0.4330 0.0000 (186606 PWs)   bands (ev):

   -37.2495 -37.2495 -37.2494 -37.2493 -37.2493 -37.2490 -37.2489 -37.2489
   -37.0593 -37.0593 -37.0592 -37.0592 -37.0574 -37.0574 -37.0573 -37.0573
   -36.9986 -36.9985 -36.9984 -36.9983 -36.7254 -36.7252 -36.7251 -36.7250
   -36.7138 -36.7137 -36.7137 -36.7136 -36.7135 -36.7135 -36.7134 -36.7134
   -36.6915 -36.6915 -36.6914 -36.6912 -36.6912 -36.6908 -36.6907 -36.6907
   -36.6078 -36.6078 -36.6077 -36.6075 -36.6074 -36.6070 -36.6069 -36.6069
   -36.5669 -36.5669 -36.5668 -36.5667 -36.5667 -36.5666 -36.5666 -36.5665
   -36.5632 -36.5630 -36.5629 -36.5628 -16.6648 -16.6644 -16.6636 -16.6609
   -16.6594 -16.6543 -16.6535 -16.6534 -16.5351 -16.5339 -16.5336 -16.5330
   -16.5244 -16.5241 -16.5224 -16.5214 -16.5208 -16.5199 -16.5192 -16.5182
   -16.3339 -16.3323 -16.3308 -16.3249 -16.2917 -16.2909 -16.2898 -16.2870
   -16.2726 -16.2656 -16.2639 -16.2626 -16.2309 -16.2308 -16.2301 -16.2272
   -16.2229 -16.2224 -16.2212 -16.2209 -16.0512 -16.0466 -16.0427 -16.0273
   -15.9858 -15.9812 -15.9771 -15.9758 -15.9720 -15.9709 -15.9683 -15.9669
   -15.9292 -15.9292 -15.9282 -15.9235 -15.9228 -15.9203 -15.9195 -15.9191
   -13.2440 -12.7462 -12.5833 -12.4878 -12.1804 -11.9937 -11.9682 -11.7372
   -11.3806 -11.2393 -11.1957 -11.1840  -7.7870  -7.7727  -7.5793  -7.5433
    -7.4156  -6.9239  -6.7701  -6.5040  -6.4608  -6.2949  -6.2092  -4.9621
    -4.8682  -4.6192  -4.4264  -4.3567  -4.0890  -4.0691  -4.0110  -3.8544
    -3.5986  -3.2579  -3.1158  -2.9189  -2.8241  -2.8208  -2.7721  -2.6122
    -2.6063  -2.5813  -2.5403  -2.4185  -2.2905  -2.1317  -2.1285  -1.8480
    -1.4460  -1.3858  -1.2818  -0.9641  -0.9120  -0.6957  -0.6420  -0.2302
     0.4749   0.6956   0.8102   1.0939   1.1130   1.2411   1.4986   1.5182
     1.6910   1.8094   1.8887   2.0122   2.0955   2.1304   2.1393   2.4973
     2.5287   2.5511   2.6788   2.8001   2.9770   3.0094   3.1782   3.1924
     3.2230   3.5718

          k = 0.1500-0.3175 0.0000 (186613 PWs)   bands (ev):

   -37.2495 -37.2495 -37.2495 -37.2494 -37.2493 -37.2489 -37.2489 -37.2489
   -37.0593 -37.0593 -37.0592 -37.0592 -37.0575 -37.0574 -37.0573 -37.0573
   -36.9987 -36.9984 -36.9984 -36.9983 -36.7255 -36.7251 -36.7251 -36.7250
   -36.7138 -36.7137 -36.7137 -36.7135 -36.7135 -36.7135 -36.7134 -36.7134
   -36.6916 -36.6915 -36.6915 -36.6913 -36.6913 -36.6907 -36.6907 -36.6906
   -36.6078 -36.6078 -36.6078 -36.6076 -36.6075 -36.6069 -36.6069 -36.6068
   -36.5669 -36.5669 -36.5668 -36.5667 -36.5667 -36.5666 -36.5665 -36.5665
   -36.5633 -36.5629 -36.5629 -36.5628 -16.6650 -16.6645 -16.6643 -16.6626
   -16.6611 -16.6525 -16.6523 -16.6520 -16.5355 -16.5335 -16.5335 -16.5331
   -16.5249 -16.5242 -16.5233 -16.5211 -16.5201 -16.5201 -16.5189 -16.5177
   -16.3352 -16.3340 -16.3337 -16.3239 -16.2910 -16.2902 -16.2899 -16.2849
   -16.2754 -16.2635 -16.2631 -16.2621 -16.2320 -16.2319 -16.2315 -16.2260
   -16.2233 -16.2208 -16.2201 -16.2199 -16.0521 -16.0485 -16.0477 -16.0213
   -15.9887 -15.9851 -15.9738 -15.9736 -15.9704 -15.9694 -15.9685 -15.9667
   -15.9302 -15.9300 -15.9297 -15.9217 -15.9215 -15.9197 -15.9195 -15.9188
   -13.3870 -12.7065 -12.5204 -12.4425 -12.0205 -12.0098 -11.9687 -11.7610
   -11.4342 -11.2036 -11.1945 -11.1858  -7.8802  -7.8103  -7.6349  -7.6053
    -7.4555  -7.0307  -6.9696  -6.5553  -6.5233  -6.4751  -6.2176  -4.7009
    -4.5341  -4.4108  -4.3950  -4.3256  -4.0269  -3.9016  -3.7534  -3.6935
    -3.5899  -3.3984  -2.9827  -2.9104  -2.8583  -2.8574  -2.6900  -2.6880
    -2.6863  -2.6781  -2.3541  -2.3514  -2.3091  -2.2834  -2.0579  -1.6994
    -1.4687  -1.2462  -1.1521  -1.1162  -1.0587  -0.9668  -0.5443   0.1874
     0.5973   0.7258   0.8649   0.9394   0.9976   1.1073   1.2835   1.2968
     1.3725   1.6438   1.6600   1.8079   1.9924   2.0132   2.0418   2.2532
     2.5355   2.6122   2.6808   2.7566   2.8629   2.9176   3.0086   3.1198
     3.1246   3.4389

          k = 0.1500-0.2021 0.0000 (186584 PWs)   bands (ev):

   -37.2495 -37.2495 -37.2495 -37.2495 -37.2494 -37.2488 -37.2488 -37.2488
   -37.0594 -37.0593 -37.0592 -37.0592 -37.0575 -37.0575 -37.0573 -37.0573
   -36.9987 -36.9984 -36.9984 -36.9983 -36.7255 -36.7251 -36.7251 -36.7250
   -36.7138 -36.7138 -36.7137 -36.7135 -36.7135 -36.7135 -36.7134 -36.7134
   -36.6916 -36.6915 -36.6915 -36.6914 -36.6914 -36.6906 -36.6906 -36.6906
   -36.6078 -36.6078 -36.6078 -36.6077 -36.6077 -36.6068 -36.6068 -36.6067
   -36.5670 -36.5669 -36.5669 -36.5667 -36.5666 -36.5666 -36.5665 -36.5665
   -36.5633 -36.5629 -36.5628 -36.5628 -16.6653 -16.6651 -16.6642 -16.6641
   -16.6625 -16.6512 -16.6511 -16.6509 -16.5359 -16.5335 -16.5333 -16.5331
   -16.5253 -16.5244 -16.5241 -16.5207 -16.5202 -16.5196 -16.5187 -16.5173
   -16.3366 -16.3360 -16.3359 -16.3234 -16.2902 -16.2898 -16.2896 -16.2830
   -16.2776 -16.2621 -16.2620 -16.2616 -16.2328 -16.2328 -16.2326 -16.2249
   -16.2235 -16.2194 -16.2190 -16.2190 -16.0530 -16.0513 -16.0507 -16.0161
   -15.9909 -15.9887 -15.9711 -15.9711 -15.9698 -15.9687 -15.9678 -15.9667
   -15.9310 -15.9308 -15.9308 -15.9203 -15.9202 -15.9194 -15.9191 -15.9186
   -13.4889 -12.7955 -12.3756 -12.3106 -12.0750 -11.9334 -11.8960 -11.7926
   -11.4752 -11.1931 -11.1892 -11.1879  -7.9610  -7.8281  -7.7356  -7.7064
    -7.4714  -7.2313  -7.1665  -6.5835  -6.5745  -6.5013  -6.1926  -4.5043
    -4.4004  -4.3954  -4.2708  -4.0275  -3.9243  -3.8404  -3.7256  -3.5023
    -3.3377  -3.2577  -2.9805  -2.9540  -2.9489  -2.7904  -2.7780  -2.7723
    -2.7335  -2.4935  -2.3219  -2.3189  -2.3076  -2.1276  -2.0211  -1.7141
    -1.4854  -1.4199  -1.2931  -1.0416  -0.9559  -0.8324  -0.4603   0.2875
     0.5166   0.5219   0.6450   0.6749   0.7785   0.9165   1.1795   1.2687
     1.4180   1.4368   1.5408   1.6998   1.7315   1.8254   1.8481   2.3388
     2.4789   2.6902   2.7479   2.8131   2.8557   2.9833   2.9945   3.1341
     3.1559   3.3084

          k = 0.1500-0.0866 0.0000 (186522 PWs)   bands (ev):

   -37.2495 -37.2495 -37.2495 -37.2495 -37.2495 -37.2488 -37.2488 -37.2488
   -37.0594 -37.0593 -37.0593 -37.0592 -37.0575 -37.0575 -37.0573 -37.0573
   -36.9987 -36.9984 -36.9983 -36.9983 -36.7256 -36.7251 -36.7250 -36.7250
   -36.7138 -36.7138 -36.7138 -36.7135 -36.7135 -36.7135 -36.7134 -36.7134
   -36.6916 -36.6916 -36.6915 -36.6915 -36.6915 -36.6905 -36.6905 -36.6905
   -36.6078 -36.6078 -36.6078 -36.6078 -36.6077 -36.6067 -36.6067 -36.6067
   -36.5670 -36.5669 -36.5669 -36.5666 -36.5666 -36.5666 -36.5665 -36.5665
   -36.5634 -36.5628 -36.5628 -36.5628 -16.6656 -16.6652 -16.6652 -16.6641
   -16.6633 -16.6505 -16.6503 -16.6503 -16.5361 -16.5334 -16.5332 -16.5332
   -16.5256 -16.5245 -16.5245 -16.5203 -16.5203 -16.5193 -16.5187 -16.5171
   -16.3374 -16.3374 -16.3372 -16.3233 -16.2896 -16.2896 -16.2893 -16.2816
   -16.2789 -16.2614 -16.2612 -16.2612 -16.2334 -16.2333 -16.2333 -16.2243
   -16.2236 -16.2185 -16.2185 -16.2184 -16.0534 -16.0534 -16.0524 -16.0127
   -15.9922 -15.9911 -15.9694 -15.9694 -15.9691 -15.9687 -15.9670 -15.9670
   -15.9314 -15.9314 -15.9314 -15.9194 -15.9194 -15.9194 -15.9188 -15.9185
   -13.5465 -12.8461 -12.2929 -12.1577 -12.1577 -11.8922 -11.8298 -11.8298
   -11.4993 -11.1917 -11.1896 -11.1896  -8.0078  -7.8270  -7.8270  -7.7727
    -7.4399  -7.4399  -7.3003  -6.5791  -6.5352  -6.5352  -6.1887  -4.3998
    -4.3998  -4.3905  -4.1589  -3.8747  -3.8747  -3.6736  -3.5561  -3.5561
    -3.2122  -3.0183  -3.0183  -3.0003  -2.9105  -2.8959  -2.8491  -2.8491
    -2.4784  -2.3647  -2.3119  -2.2972  -2.2972  -2.0443  -1.9463  -1.7081
    -1.7081  -1.5772  -1.0811  -1.0811  -0.9167  -0.6446  -0.4077  -0.0462
     0.1750   0.3389   0.6093   0.6501   0.6501   0.8726   0.8726   1.2103
     1.2103   1.5168   1.5525   1.6987   1.6987   1.7484   1.9574   2.3655
     2.4017   2.7122   2.7423   2.8229   2.8229   2.8843   3.1475   3.2181
     3.2463   3.2464

          k = 0.1500 0.0289 0.0000 (186480 PWs)   bands (ev):

   -37.2495 -37.2495 -37.2495 -37.2495 -37.2495 -37.2488 -37.2488 -37.2488
   -37.0594 -37.0593 -37.0593 -37.0592 -37.0575 -37.0575 -37.0573 -37.0573
   -36.9987 -36.9984 -36.9983 -36.9983 -36.7256 -36.7251 -36.7250 -36.7250
   -36.7138 -36.7138 -36.7138 -36.7135 -36.7135 -36.7135 -36.7134 -36.7134
   -36.6916 -36.6916 -36.6915 -36.6915 -36.6915 -36.6905 -36.6905 -36.6905
   -36.6078 -36.6078 -36.6078 -36.6078 -36.6077 -36.6067 -36.6067 -36.6067
   -36.5670 -36.5669 -36.5669 -36.5666 -36.5666 -36.5666 -36.5665 -36.5665
   -36.5634 -36.5628 -36.5628 -36.5628 -16.6657 -16.6654 -16.6652 -16.6641
   -16.6635 -16.6503 -16.6502 -16.6501 -16.5362 -16.5333 -16.5333 -16.5332
   -16.5258 -16.5247 -16.5245 -16.5203 -16.5200 -16.5191 -16.5189 -16.5172
   -16.3377 -16.3376 -16.3375 -16.3233 -16.2896 -16.2894 -16.2893 -16.2813
   -16.2793 -16.2613 -16.2611 -16.2610 -16.2335 -16.2335 -16.2334 -16.2242
   -16.2236 -16.2183 -16.2183 -16.2182 -16.0538 -16.0533 -16.0530 -16.0119
   -15.9926 -15.9916 -15.9692 -15.9691 -15.9690 -15.9680 -15.9674 -15.9669
   -15.9316 -15.9315 -15.9314 -15.9193 -15.9192 -15.9190 -15.9189 -15.9185
   -13.5581 -12.8564 -12.2482 -12.2026 -12.1215 -11.8710 -11.8500 -11.8187
   -11.5043 -11.1911 -11.1909 -11.1904  -8.0174  -7.8449  -7.8164  -7.7979
    -7.4878  -7.4047  -7.3574  -6.5675  -6.5524  -6.5228  -6.1887  -4.4028
    -4.3869  -4.3858  -4.1403  -3.8804  -3.7851  -3.7125  -3.5660  -3.3890
    -3.2625  -3.0310  -3.0235  -3.0163  -2.9160  -2.8872  -2.8648  -2.7978
    -2.4718  -2.3055  -2.3000  -2.2871  -2.2674  -2.0387  -1.9366  -1.7580
    -1.6801  -1.6359  -1.0890  -0.9979  -0.9436  -0.5942  -0.4072  -0.1282
     0.0888   0.3690   0.4780   0.6358   0.6455   0.7320   0.8639   1.1985
     1.3683   1.4940   1.5066   1.6720   1.7021   1.7190   2.0213   2.3606
     2.3883   2.7245   2.7276   2.7630   2.8187   2.9424   3.1270   3.2011
     3.2997   3.3002

          k = 0.2500 0.2021 0.0000 (186601 PWs)   bands (ev):

   -37.2495 -37.2495 -37.2494 -37.2494 -37.2494 -37.2489 -37.2489 -37.2488
   -37.0594 -37.0593 -37.0592 -37.0592 -37.0574 -37.0574 -37.0574 -37.0573
   -36.9987 -36.9984 -36.9984 -36.9983 -36.7255 -36.7251 -36.7251 -36.7250
   -36.7138 -36.7137 -36.7137 -36.7135 -36.7135 -36.7134 -36.7134 -36.7134
   -36.6916 -36.6916 -36.6915 -36.6914 -36.6914 -36.6907 -36.6906 -36.6906
   -36.6078 -36.6078 -36.6077 -36.6077 -36.6076 -36.6069 -36.6068 -36.6068
   -36.5670 -36.5669 -36.5668 -36.5666 -36.5666 -36.5666 -36.5666 -36.5665
   -36.5633 -36.5629 -36.5628 -36.5628 -16.6655 -16.6644 -16.6641 -16.6633
   -16.6615 -16.6522 -16.6517 -16.6517 -16.5356 -16.5336 -16.5333 -16.5332
   -16.5254 -16.5243 -16.5236 -16.5203 -16.5197 -16.5197 -16.5194 -16.5181
   -16.3355 -16.3351 -16.3341 -16.3237 -16.2907 -16.2904 -16.2895 -16.2843
   -16.2762 -16.2634 -16.2623 -16.2620 -16.2322 -16.2321 -16.2319 -16.2257
   -16.2233 -16.2202 -16.2199 -16.2196 -16.0519 -16.0508 -16.0478 -16.0198
   -15.9890 -15.9865 -15.9723 -15.9721 -15.9710 -15.9709 -15.9671 -15.9667
   -15.9305 -15.9304 -15.9299 -15.9212 -15.9207 -15.9202 -15.9191 -15.9188
   -13.4208 -12.7358 -12.5472 -12.2620 -12.1097 -12.0404 -11.8641 -11.7948
   -11.4475 -11.2085 -11.1839 -11.1835  -7.9067  -7.7899  -7.7277  -7.6082
    -7.3841  -7.2284  -6.9722  -6.5559  -6.5204  -6.5104  -6.2071  -4.5603
    -4.4457  -4.4307  -4.4299  -4.1353  -4.0423  -4.0221  -3.8478  -3.5835
    -3.5759  -3.1810  -2.9250  -2.9033  -2.8823  -2.8731  -2.7184  -2.7072
    -2.7036  -2.6876  -2.3463  -2.3447  -2.2886  -2.1726  -2.0758  -1.6202
    -1.4686  -1.3639  -1.2173  -1.1563  -1.0546  -0.8666  -0.4879   0.4504
     0.4507   0.4575   0.7221   0.7282   0.7776   1.2053   1.3426   1.4335
     1.4577   1.6232   1.6962   1.6980   1.8516   1.8962   1.9818   2.3013
     2.5253   2.6113   2.6257   2.8904   2.9469   2.9556   3.0652   3.1022
     3.1635   3.4098

          k = 0.2500 0.3175 0.0000 (186604 PWs)   bands (ev):

   -37.2495 -37.2495 -37.2494 -37.2493 -37.2493 -37.2489 -37.2489 -37.2489
   -37.0594 -37.0593 -37.0593 -37.0592 -37.0574 -37.0574 -37.0574 -37.0573
   -36.9986 -36.9984 -36.9984 -36.9983 -36.7255 -36.7252 -36.7251 -36.7250
   -36.7138 -36.7137 -36.7137 -36.7135 -36.7135 -36.7135 -36.7135 -36.7134
   -36.6916 -36.6915 -36.6915 -36.6913 -36.6913 -36.6907 -36.6907 -36.6907
   -36.6078 -36.6078 -36.6077 -36.6075 -36.6075 -36.6069 -36.6069 -36.6069
   -36.5669 -36.5669 -36.5668 -36.5666 -36.5666 -36.5666 -36.5666 -36.5666
   -36.5632 -36.5629 -36.5629 -36.5628 -16.6649 -16.6644 -16.6641 -16.6616
   -16.6603 -16.6533 -16.6529 -16.6527 -16.5353 -16.5337 -16.5335 -16.5331
   -16.5252 -16.5238 -16.5233 -16.5203 -16.5199 -16.5195 -16.5195 -16.5189
   -16.3345 -16.3331 -16.3323 -16.3243 -16.2914 -16.2905 -16.2899 -16.2860
   -16.2741 -16.2644 -16.2635 -16.2624 -16.2314 -16.2314 -16.2307 -16.2266
   -16.2231 -16.2216 -16.2206 -16.2205 -16.0516 -16.0475 -16.0453 -16.0242
   -15.9874 -15.9831 -15.9753 -15.9748 -15.9707 -15.9707 -15.9684 -15.9668
   -15.9298 -15.9295 -15.9290 -15.9225 -15.9221 -15.9201 -15.9194 -15.9190
   -13.3204 -12.6488 -12.6330 -12.4682 -12.0977 -11.9859 -11.9828 -11.7478
   -11.4086 -11.2189 -11.1952 -11.1848  -7.8290  -7.7985  -7.6040  -7.5587
    -7.4364  -6.9717  -6.8657  -6.5306  -6.4665  -6.3985  -6.2474  -4.7947
    -4.7312  -4.4851  -4.4219  -4.3807  -4.0213  -4.0006  -3.8947  -3.7264
    -3.6841  -3.3311  -3.0591  -2.8675  -2.8297  -2.8100  -2.7986  -2.6479
    -2.6468  -2.6247  -2.4708  -2.3845  -2.2996  -2.2203  -2.0871  -1.7586
    -1.4539  -1.2782  -1.2318  -1.0443  -0.9904  -0.8832  -0.5929  -0.0318
     0.6089   0.7633   0.8292   1.0519   1.1015   1.1729   1.2708   1.4407
     1.5240   1.6607   1.8102   1.8991   2.0708   2.0961   2.1839   2.3520
     2.5062   2.5962   2.6963   2.7227   2.8669   2.8940   3.0843   3.1510
     3.1633   3.5199

          k = 0.2500 0.4330 0.0000 (186666 PWs)   bands (ev):

   -37.2495 -37.2495 -37.2495 -37.2492 -37.2492 -37.2490 -37.2490 -37.2490
   -37.0593 -37.0593 -37.0593 -37.0592 -37.0574 -37.0574 -37.0574 -37.0574
   -36.9986 -36.9984 -36.9984 -36.9983 -36.7254 -36.7252 -36.7252 -36.7250
   -36.7138 -36.7137 -36.7137 -36.7135 -36.7135 -36.7135 -36.7134 -36.7134
   -36.6915 -36.6915 -36.6915 -36.6912 -36.6911 -36.6908 -36.6908 -36.6908
   -36.6078 -36.6077 -36.6077 -36.6074 -36.6074 -36.6070 -36.6070 -36.6070
   -36.5669 -36.5668 -36.5668 -36.5666 -36.5666 -36.5666 -36.5666 -36.5666
   -36.5632 -36.5630 -36.5630 -36.5627 -16.6643 -16.6642 -16.6642 -16.6598
   -16.6588 -16.6544 -16.6544 -16.6542 -16.5348 -16.5338 -16.5338 -16.5330
   -16.5247 -16.5232 -16.5232 -16.5210 -16.5198 -16.5197 -16.5194 -16.5194
   -16.3336 -16.3306 -16.3306 -16.3254 -16.2920 -16.2904 -16.2904 -16.2878
   -16.2716 -16.2653 -16.2653 -16.2628 -16.2305 -16.2305 -16.2292 -16.2277
   -16.2233 -16.2228 -16.2214 -16.2214 -16.0513 -16.0431 -16.0431 -16.0295
   -15.9853 -15.9791 -15.9778 -15.9778 -15.9705 -15.9705 -15.9702 -15.9674
   -15.9287 -15.9283 -15.9283 -15.9241 -15.9236 -15.9199 -15.9199 -15.9193
   -13.1795 -12.6900 -12.6900 -12.5284 -12.1369 -12.1369 -11.8869 -11.7251
   -11.3581 -11.2268 -11.2268 -11.1881  -7.7963  -7.7271  -7.5323  -7.5323
    -7.4534  -6.7822  -6.7822  -6.4377  -6.3404  -6.2669  -6.2669  -5.1350
    -4.9745  -4.7634  -4.3820  -4.3820  -4.1642  -3.9740  -3.8350  -3.8350
    -3.5491  -3.5491  -3.2174  -2.9146  -2.8294  -2.8170  -2.8170  -2.7992
    -2.5879  -2.5140  -2.5140  -2.4203  -2.1511  -2.1511  -2.1404  -1.9746
    -1.5438  -1.3450  -1.0801  -1.0801  -0.7283  -0.6848  -0.6848  -0.4651
     0.3986   0.9671   0.9671   1.2140   1.3969   1.3969   1.4732   1.6144
     1.6144   1.6276   1.9299   2.0517   2.0893   2.1282   2.1282   2.4744
     2.4897   2.6366   2.6366   2.7720   2.9526   3.1699   3.1699   3.2154
     3.6123   3.6124

          k = 0.2500 0.5485 0.0000 (186632 PWs)   bands (ev):

   -37.2495 -37.2495 -37.2494 -37.2491 -37.2491 -37.2491 -37.2490 -37.2490
   -37.0593 -37.0593 -37.0592 -37.0592 -37.0574 -37.0574 -37.0574 -37.0573
   -36.9985 -36.9985 -36.9985 -36.9983 -36.7253 -36.7253 -36.7252 -36.7250
   -36.7137 -36.7137 -36.7136 -36.7136 -36.7135 -36.7135 -36.7134 -36.7134
   -36.6915 -36.6915 -36.6915 -36.6911 -36.6910 -36.6909 -36.6909 -36.6909
   -36.6078 -36.6078 -36.6077 -36.6073 -36.6072 -36.6072 -36.6071 -36.6070
   -36.5669 -36.5668 -36.5668 -36.5667 -36.5667 -36.5666 -36.5666 -36.5666
   -36.5631 -36.5630 -36.5630 -36.5627 -16.6643 -16.6642 -16.6637 -16.6582
   -16.6571 -16.6561 -16.6555 -16.6551 -16.5344 -16.5342 -16.5339 -16.5330
   -16.5243 -16.5233 -16.5225 -16.5216 -16.5208 -16.5199 -16.5192 -16.5189
   -16.3331 -16.3297 -16.3282 -16.3271 -16.2923 -16.2908 -16.2899 -16.2893
   -16.2689 -16.2676 -16.2657 -16.2630 -16.2299 -16.2294 -16.2288 -16.2280
   -16.2247 -16.2223 -16.2221 -16.2220 -16.0510 -16.0419 -16.0379 -16.0351
   -15.9826 -15.9810 -15.9792 -15.9752 -15.9735 -15.9705 -15.9699 -15.9678
   -15.9279 -15.9277 -15.9267 -15.9258 -15.9248 -15.9202 -15.9197 -15.9196
   -13.0032 -12.9039 -12.7149 -12.3817 -12.3016 -12.1544 -11.8334 -11.7228
   -11.3022 -11.2748 -11.2305 -11.1904  -7.7934  -7.6180  -7.5714  -7.5233
    -7.4540  -6.7392  -6.5957  -6.4993  -6.4264  -6.1932  -5.8360  -5.6004
    -5.0510  -4.9003  -4.3658  -4.3430  -4.3272  -3.9450  -3.9088  -3.7018
    -3.5845  -3.4505  -3.3141  -3.1726  -2.9111  -2.8850  -2.8190  -2.7548
    -2.5751  -2.4435  -2.3914  -2.3306  -2.2515  -2.1315  -2.1165  -1.9404
    -1.8155  -1.1759  -1.1555  -0.9414  -0.8715  -0.7677  -0.5439  -0.2494
    -0.0238   0.8424   1.1209   1.1912   1.5564   1.5856   1.6940   1.7171
     1.7890   1.9378   1.9482   1.9965   2.0004   2.1449   2.1744   2.4360
     2.5930   2.6467   2.6580   2.9225   3.0250   3.0403   3.1826   3.3135
     3.3890   3.4899

          k = 0.2500 0.6640 0.0000 (186642 PWs)   bands (ev):

   -37.2495 -37.2495 -37.2494 -37.2492 -37.2492 -37.2490 -37.2490 -37.2490
   -37.0593 -37.0593 -37.0592 -37.0592 -37.0574 -37.0574 -37.0573 -37.0573
   -36.9986 -36.9985 -36.9985 -36.9983 -36.7253 -36.7252 -36.7252 -36.7250
   -36.7137 -36.7137 -36.7136 -36.7136 -36.7135 -36.7135 -36.7134 -36.7134
   -36.6915 -36.6915 -36.6915 -36.6911 -36.6911 -36.6909 -36.6908 -36.6908
   -36.6078 -36.6077 -36.6077 -36.6073 -36.6073 -36.6071 -36.6070 -36.6070
   -36.5669 -36.5669 -36.5668 -36.5667 -36.5667 -36.5666 -36.5665 -36.5665
   -36.5631 -36.5630 -36.5630 -36.5627 -16.6643 -16.6642 -16.6638 -16.6589
   -16.6579 -16.6553 -16.6549 -16.6549 -16.5347 -16.5339 -16.5339 -16.5330
   -16.5239 -16.5236 -16.5219 -16.5218 -16.5217 -16.5202 -16.5189 -16.5184
   -16.3332 -16.3300 -16.3293 -16.3262 -16.2922 -16.2907 -16.2902 -16.2887
   -16.2702 -16.2664 -16.2656 -16.2629 -16.2301 -16.2300 -16.2285 -16.2282
   -16.2241 -16.2226 -16.2218 -16.2217 -16.0511 -16.0423 -16.0406 -16.0323
   -15.9839 -15.9795 -15.9787 -15.9772 -15.9719 -15.9705 -15.9701 -15.9676
   -15.9280 -15.9280 -15.9275 -15.9251 -15.9244 -15.9200 -15.9199 -15.9194
   -13.0954 -12.7990 -12.7065 -12.4578 -12.2193 -12.1485 -11.8526 -11.7225
   -11.3303 -11.2493 -11.2293 -11.1896  -7.7944  -7.6717  -7.5397  -7.5262
    -7.4543  -6.7542  -6.6925  -6.4300  -6.4122  -6.2192  -6.0619  -5.3642
    -5.0262  -4.8529  -4.3814  -4.3585  -4.2608  -3.9552  -3.8856  -3.7161
    -3.6437  -3.4391  -3.3243  -3.0164  -2.9180  -2.8507  -2.8179  -2.7712
    -2.5745  -2.4693  -2.4209  -2.4125  -2.1879  -2.1285  -2.0700  -2.0516
    -1.6830  -1.2550  -1.1275  -1.0124  -0.7982  -0.6445  -0.5960  -0.4717
     0.1960   0.8973   1.0432   1.2338   1.4789   1.5505   1.5965   1.6587
     1.6885   1.8854   1.9723   1.9764   2.0719   2.0922   2.1329   2.4551
     2.5167   2.6499   2.6657   2.8304   3.0589   3.1177   3.1352   3.2973
     3.4531   3.5742

          k = 0.2500-0.3753 0.0000 (186648 PWs)   bands (ev):

   -37.2495 -37.2495 -37.2494 -37.2493 -37.2493 -37.2490 -37.2490 -37.2489
   -37.0593 -37.0593 -37.0592 -37.0592 -37.0575 -37.0574 -37.0573 -37.0573
   -36.9986 -36.9984 -36.9984 -36.9983 -36.7254 -36.7252 -36.7251 -36.7250
   -36.7137 -36.7137 -36.7137 -36.7136 -36.7135 -36.7135 -36.7134 -36.7134
   -36.6915 -36.6915 -36.6915 -36.6912 -36.6912 -36.6908 -36.6908 -36.6907
   -36.6078 -36.6078 -36.6077 -36.6075 -36.6074 -36.6070 -36.6070 -36.6069
   -36.5669 -36.5668 -36.5668 -36.5667 -36.5667 -36.5666 -36.5665 -36.5665
   -36.5632 -36.5629 -36.5629 -36.5627 -16.6644 -16.6643 -16.6641 -16.6608
   -16.6596 -16.6539 -16.6537 -16.6534 -16.5351 -16.5338 -16.5336 -16.5330
   -16.5240 -16.5238 -16.5227 -16.5218 -16.5210 -16.5204 -16.5187 -16.5179
   -16.3340 -16.3318 -16.3314 -16.3248 -16.2917 -16.2905 -16.2902 -16.2870
   -16.2728 -16.2649 -16.2644 -16.2626 -16.2310 -16.2309 -16.2301 -16.2271
   -16.2230 -16.2224 -16.2210 -16.2210 -16.0515 -16.0454 -16.0441 -16.0268
   -15.9863 -15.9812 -15.9767 -15.9763 -15.9706 -15.9705 -15.9693 -15.9670
   -15.9292 -15.9289 -15.9287 -15.9234 -15.9229 -15.9200 -15.9196 -15.9190
   -13.2548 -12.6653 -12.5924 -12.5788 -12.1198 -12.0571 -11.9322 -11.7333
   -11.3844 -11.2233 -11.2085 -11.1864  -7.7979  -7.7803  -7.5550  -7.5429
    -7.4482  -6.8686  -6.8205  -6.4498  -6.4313  -6.3296  -6.2858  -4.9215
    -4.8961  -4.6386  -4.4053  -4.3777  -4.0402  -3.9975  -3.9328  -3.7629
    -3.6446  -3.4391  -3.1332  -2.8643  -2.8323  -2.8193  -2.7971  -2.6506
    -2.6143  -2.5953  -2.5701  -2.4068  -2.2350  -2.1830  -2.1074  -1.8678
    -1.4160  -1.4089  -1.1511  -1.0237  -0.8805  -0.7910  -0.6569  -0.2582
     0.5543   0.8949   0.9343   1.1529   1.2588   1.3181   1.3260   1.3988
     1.5676   1.6327   1.8815   2.0056   2.1240   2.1285   2.1301   2.4791
     2.5006   2.6063   2.6565   2.7394   2.8851   3.0100   3.1443   3.1712
     3.1717   3.5890

          k = 0.2500-0.2598 0.0000 (186613 PWs)   bands (ev):

   -37.2495 -37.2495 -37.2494 -37.2494 -37.2493 -37.2489 -37.2489 -37.2489
   -37.0593 -37.0593 -37.0592 -37.0592 -37.0575 -37.0575 -37.0573 -37.0573
   -36.9987 -36.9984 -36.9984 -36.9983 -36.7255 -36.7251 -36.7251 -36.7250
   -36.7138 -36.7137 -36.7137 -36.7135 -36.7135 -36.7135 -36.7134 -36.7134
   -36.6916 -36.6915 -36.6915 -36.6913 -36.6913 -36.6907 -36.6907 -36.6906
   -36.6078 -36.6078 -36.6077 -36.6076 -36.6075 -36.6069 -36.6069 -36.6068
   -36.5669 -36.5669 -36.5668 -36.5667 -36.5667 -36.5666 -36.5665 -36.5665
   -36.5633 -36.5629 -36.5628 -36.5628 -16.6651 -16.6643 -16.6641 -16.6626
   -16.6610 -16.6528 -16.6523 -16.6521 -16.5355 -16.5337 -16.5333 -16.5331
   -16.5245 -16.5240 -16.5235 -16.5213 -16.5206 -16.5204 -16.5185 -16.5175
   -16.3350 -16.3341 -16.3333 -16.3240 -16.2910 -16.2905 -16.2897 -16.2851
   -16.2751 -16.2639 -16.2629 -16.2622 -16.2318 -16.2318 -16.2314 -16.2261
   -16.2232 -16.2208 -16.2202 -16.2200 -16.0518 -16.0493 -16.0465 -16.0218
[...]
     1.5676   1.6327   1.8815   2.0056   2.1240   2.1285   2.1301   2.4791
     2.5006   2.6063   2.6565   2.7394   2.8851   3.0100   3.1443   3.1712
     3.1717   3.5890

          k = 0.4500 0.0866 0.0000 (186606 PWs)   bands (ev):

   -37.2495 -37.2495 -37.2494 -37.2493 -37.2493 -37.2490 -37.2489 -37.2489
   -37.0593 -37.0593 -37.0592 -37.0592 -37.0574 -37.0574 -37.0573 -37.0573
   -36.9986 -36.9985 -36.9984 -36.9983 -36.7254 -36.7252 -36.7251 -36.7250
   -36.7138 -36.7137 -36.7137 -36.7136 -36.7135 -36.7135 -36.7134 -36.7134
   -36.6915 -36.6915 -36.6914 -36.6912 -36.6912 -36.6908 -36.6907 -36.6907
   -36.6078 -36.6078 -36.6077 -36.6075 -36.6074 -36.6070 -36.6069 -36.6069
   -36.5669 -36.5669 -36.5668 -36.5667 -36.5667 -36.5666 -36.5666 -36.5665
   -36.5632 -36.5630 -36.5629 -36.5628 -16.6648 -16.6644 -16.6636 -16.6609
   -16.6594 -16.6543 -16.6535 -16.6534 -16.5351 -16.5339 -16.5336 -16.5330
   -16.5244 -16.5241 -16.5224 -16.5214 -16.5208 -16.5199 -16.5192 -16.5182
   -16.3339 -16.3323 -16.3308 -16.3249 -16.2917 -16.2909 -16.2898 -16.2870
   -16.2726 -16.2656 -16.2639 -16.2626 -16.2309 -16.2308 -16.2301 -16.2272
   -16.2229 -16.2224 -16.2212 -16.2209 -16.0512 -16.0466 -16.0427 -16.0273
   -15.9858 -15.9812 -15.9771 -15.9758 -15.9720 -15.9709 -15.9683 -15.9669
   -15.9292 -15.9292 -15.9282 -15.9235 -15.9228 -15.9203 -15.9195 -15.9191
   -13.2440 -12.7462 -12.5833 -12.4878 -12.1804 -11.9937 -11.9682 -11.7372
   -11.3806 -11.2393 -11.1957 -11.1840  -7.7870  -7.7727  -7.5793  -7.5433
    -7.4156  -6.9239  -6.7701  -6.5040  -6.4608  -6.2949  -6.2092  -4.9621
    -4.8682  -4.6192  -4.4264  -4.3567  -4.0890  -4.0691  -4.0110  -3.8544
    -3.5986  -3.2579  -3.1158  -2.9189  -2.8241  -2.8208  -2.7721  -2.6122
    -2.6063  -2.5813  -2.5403  -2.4185  -2.2905  -2.1317  -2.1285  -1.8480
    -1.4460  -1.3858  -1.2818  -0.9641  -0.9120  -0.6957  -0.6420  -0.2302
     0.4749   0.6956   0.8102   1.0939   1.1130   1.2411   1.4986   1.5182
     1.6910   1.8094   1.8887   2.0122   2.0955   2.1304   2.1393   2.4973
     2.5287   2.5511   2.6788   2.8001   2.9770   3.0094   3.1782   3.1924
     3.2230   3.5718

          k = 0.4500 0.2021 0.0000 (186681 PWs)   bands (ev):

   -37.2495 -37.2495 -37.2494 -37.2493 -37.2492 -37.2491 -37.2489 -37.2489
   -37.0593 -37.0593 -37.0592 -37.0592 -37.0574 -37.0574 -37.0574 -37.0573
   -36.9986 -36.9985 -36.9984 -36.9983 -36.7254 -36.7253 -36.7251 -36.7250
   -36.7138 -36.7137 -36.7136 -36.7136 -36.7135 -36.7135 -36.7134 -36.7134
   -36.6916 -36.6916 -36.6914 -36.6913 -36.6911 -36.6909 -36.6907 -36.6907
   -36.6078 -36.6078 -36.6076 -36.6075 -36.6073 -36.6071 -36.6069 -36.6069
   -36.5669 -36.5669 -36.5668 -36.5667 -36.5666 -36.5666 -36.5666 -36.5666
   -36.5632 -36.5630 -36.5628 -36.5628 -16.6651 -16.6647 -16.6624 -16.6614
   -16.6585 -16.6552 -16.6535 -16.6535 -16.5349 -16.5341 -16.5333 -16.5331
   -16.5246 -16.5243 -16.5221 -16.5209 -16.5208 -16.5199 -16.5194 -16.5186
   -16.3333 -16.3328 -16.3295 -16.3256 -16.2917 -16.2915 -16.2892 -16.2874
   -16.2717 -16.2671 -16.2633 -16.2629 -16.2306 -16.2302 -16.2302 -16.2279
   -16.2225 -16.2222 -16.2218 -16.2212 -16.0501 -16.0485 -16.0396 -16.0296
   -15.9835 -15.9808 -15.9776 -15.9753 -15.9745 -15.9727 -15.9670 -15.9666
   -15.9293 -15.9292 -15.9273 -15.9242 -15.9223 -15.9213 -15.9192 -15.9190
   -13.1905 -12.8868 -12.5380 -12.2985 -12.2894 -12.1118 -11.8733 -11.7791
   -11.3621 -11.2719 -11.1789 -11.1768  -7.7354  -7.7309  -7.6500  -7.5730
    -7.2682  -7.0778  -6.6545  -6.5454  -6.5061  -6.3419  -5.9457  -5.1449
    -4.7317  -4.5196  -4.4976  -4.4343  -4.2793  -4.1836  -4.1456  -4.0736
    -3.3406  -3.0843  -3.0768  -3.0218  -2.7714  -2.7454  -2.7008  -2.5908
    -2.5685  -2.4969  -2.4607  -2.4450  -2.4052  -2.2356  -2.0243  -1.7490
    -1.5880  -1.5469  -1.2528  -1.1061  -0.7502  -0.6114  -0.4879  -0.0900
     0.2209   0.2376   0.6331   0.8964   0.9080   1.0399   1.8208   1.8246
     1.8309   1.9133   2.0540   2.0716   2.0901   2.0916   2.3546   2.4613
     2.5001   2.5713   2.7751   2.8992   3.0099   3.2122   3.2578   3.3946
     3.4465   3.4520

     the Fermi energy is    -1.6994 ev

!    total energy              =   -4146.60043873 Ry
     estimated scf accuracy    <          9.7E-11 Ry
     smearing contrib. (-TS)   =      -0.00000035 Ry
     internal energy E=F+TS    =   -4146.60043838 Ry

     The total energy is F=E-TS. E is the sum of the following terms:
     one-electron contribution =  -50027.65577014 Ry
     hartree contribution      =   25089.59685795 Ry
     xc contribution           =    -964.54435369 Ry
     ewald contribution        =   21756.00334631 Ry
     electric field correction =      -0.00051880 Ry

     convergence has been achieved in  25 iterations

     Forces acting on atoms (cartesian axes, Ry/au):

     atom    1 type  1   force =     0.00005746   -0.00003317   -0.01370624
     atom    2 type  1   force =    -0.00003460    0.00001970    0.00662765
     atom    3 type  1   force =    -0.00004419    0.00002557    0.02212334
     atom    4 type  1   force =    -0.00003459    0.00002007    0.00662771
     atom    5 type  1   force =    -0.00004417    0.00002560    0.02212073
     atom    6 type  1   force =     0.00005748   -0.00003318   -0.01370627
     atom    7 type  1   force =    -0.00003394    0.00001920    0.00662780
     atom    8 type  1   force =    -0.00004376    0.00002558    0.02212137
     atom    9 type  1   force =     0.00005744   -0.00003318   -0.01370639
     atom   10 type  1   force =    -0.00003388    0.00001999    0.00662783
     atom   11 type  1   force =    -0.00004451    0.00002566    0.02212209
     atom   12 type  1   force =     0.00005745   -0.00003318   -0.01370634
     atom   13 type  2   force =     0.00008098   -0.00004713   -0.00879005
     atom   14 type  2   force =    -0.00001155    0.00000657   -0.01407113
     atom   15 type  2   force =    -0.00004951    0.00002862    0.00781791
     atom   16 type  2   force =    -0.00004978    0.00002878    0.00781794
     atom   17 type  2   force =     0.00008199   -0.00004739   -0.00879055
     atom   18 type  2   force =    -0.00001120    0.00000657   -0.01407247
     atom   19 type  2   force =     0.00008258   -0.00004686   -0.00878983
     atom   20 type  2   force =    -0.00001036    0.00000624   -0.01407126
     atom   21 type  2   force =    -0.00005049    0.00002915    0.00781847
     atom   22 type  2   force =     0.00008216   -0.00004850   -0.00878987
     atom   23 type  2   force =    -0.00001076    0.00000603   -0.01407073
     atom   24 type  2   force =    -0.00005026    0.00002927    0.00781828
     The non-local contrib.  to forces
     atom    1 type  1   force =    -0.00035369    0.00020422    0.35423526
     atom    2 type  1   force =     0.00010262   -0.00005937   -0.08673732
     atom    3 type  1   force =     0.00001462   -0.00000828   -0.10683261
     atom    4 type  1   force =     0.00010246   -0.00005919   -0.08673728
     atom    5 type  1   force =     0.00001428   -0.00000835   -0.10683488
     atom    6 type  1   force =    -0.00035370    0.00020420    0.35423525
     atom    7 type  1   force =     0.00010280   -0.00005973   -0.08673682
     atom    8 type  1   force =     0.00001482   -0.00000848   -0.10683455
     atom    9 type  1   force =    -0.00035380    0.00020422    0.35423591
     atom   10 type  1   force =     0.00010297   -0.00005899   -0.08673721
     atom   11 type  1   force =     0.00001448   -0.00000836   -0.10683404
     atom   12 type  1   force =    -0.00035376    0.00020426    0.35423583
     atom   13 type  2   force =    -0.00027092    0.00015681   -0.05004281
     atom   14 type  2   force =    -0.00003190    0.00001809   -0.45946337
     atom   15 type  2   force =    -0.00003394    0.00001982    0.10604368
     atom   16 type  2   force =    -0.00003420    0.00001948    0.10604398
     atom   17 type  2   force =    -0.00027052    0.00015650   -0.05004356
     atom   18 type  2   force =    -0.00003123    0.00001833   -0.45946409
     atom   19 type  2   force =    -0.00027202    0.00015733   -0.05004351
     atom   20 type  2   force =    -0.00003068    0.00001813   -0.45946379
     atom   21 type  2   force =    -0.00003394    0.00001942    0.10604287
     atom   22 type  2   force =    -0.00027263    0.00015731   -0.05004301
     atom   23 type  2   force =    -0.00003145    0.00001777   -0.45946329
     atom   24 type  2   force =    -0.00003405    0.00001943    0.10604309
     The ionic contribution  to forces
     atom    1 type  1   force =     0.00000062   -0.00000103 -167.56823365
     atom    2 type  1   force =    -0.00001377   -0.00001957  -53.88644650
     atom    3 type  1   force =    -0.00001024    0.00001227   80.02791724
     atom    4 type  1   force =    -0.00000297    0.00001769  -53.88645316
     atom    5 type  1   force =     0.00000702   -0.00000737   80.02792777
     atom    6 type  1   force =     0.00000475   -0.00000180 -167.56823119
     atom    7 type  1   force =     0.00002264   -0.00003124  -53.88645601
     atom    8 type  1   force =     0.00001650    0.00002370   80.02792137
     atom    9 type  1   force =    -0.00000123    0.00000357 -167.56823276
     atom   10 type  1   force =     0.00001018    0.00000841  -53.88644934
     atom   11 type  1   force =    -0.00002147    0.00000292   80.02794471
     atom   12 type  1   force =    -0.00000448   -0.00000021 -167.56822758
     atom   13 type  2   force =    -0.00001144    0.00000988   53.88643765
     atom   14 type  2   force =     0.00000929    0.00000439  188.12656113
     atom   15 type  2   force =     0.00000361   -0.00001556 -100.58625196
     atom   16 type  2   force =     0.00000416    0.00001198 -100.58626457
     atom   17 type  2   force =    -0.00000886   -0.00002094   53.88645403
     atom   18 type  2   force =    -0.00001214   -0.00000315  188.12655812
     atom   19 type  2   force =     0.00000615    0.00001817   53.88645570
     atom   20 type  2   force =    -0.00001042   -0.00000688  188.12656606
     atom   21 type  2   force =    -0.00001530    0.00000675 -100.58623605
     atom   22 type  2   force =     0.00002291   -0.00003952   53.88643932
     atom   23 type  2   force =     0.00001303    0.00000656  188.12655919
     atom   24 type  2   force =    -0.00000852    0.00002098 -100.58625955
     The local contribution  to forces
     atom    1 type  1   force =     0.00042702   -0.00024593  167.15164506
     atom    2 type  1   force =    -0.00012887    0.00010060   53.93307655
     atom    3 type  1   force =    -0.00005673    0.00002702  -79.94235611
     atom    4 type  1   force =    -0.00013841    0.00006469   53.93308312
     atom    5 type  1   force =    -0.00007455    0.00004581  -79.94236327
     atom    6 type  1   force =     0.00042195   -0.00024526  167.15164299
     atom    7 type  1   force =    -0.00016947    0.00011623   53.93308889
     atom    8 type  1   force =    -0.00008183    0.00001390  -79.94236212
     atom    9 type  1   force =     0.00042665   -0.00025032  167.15164892
     atom   10 type  1   force =    -0.00015827    0.00007612   53.93308208
     atom   11 type  1   force =    -0.00004283    0.00003474  -79.94238425
     atom   12 type  1   force =     0.00043079   -0.00024570  167.15164380
     atom   13 type  2   force =     0.00038180   -0.00022320  -53.90294475
     atom   14 type  2   force =     0.00001109   -0.00001596 -187.74645738
     atom   15 type  2   force =    -0.00002698    0.00002852  100.42964172
     atom   16 type  2   force =    -0.00002625    0.00000191  100.42965516
     atom   17 type  2   force =     0.00037512   -0.00019269  -53.90296054
     atom   18 type  2   force =     0.00003236   -0.00000852 -187.74645066
     atom   19 type  2   force =     0.00034811   -0.00022633  -53.90296220
     atom   20 type  2   force =     0.00002914   -0.00000412 -187.74646386
     atom   21 type  2   force =    -0.00000069    0.00000373  100.42961758
     atom   22 type  2   force =     0.00033579   -0.00016468  -53.90294575
     atom   23 type  2   force =     0.00000605   -0.00001732 -187.74645823
     atom   24 type  2   force =    -0.00000847   -0.00001147  100.42963955
     The core correction contribution to forces
     atom    1 type  1   force =    -0.00001549    0.00000894   -0.00054038
     atom    2 type  1   force =     0.00000748   -0.00000434   -0.00241985
     atom    3 type  1   force =     0.00000727   -0.00000418   -0.00578680
     atom    4 type  1   force =     0.00000749   -0.00000432   -0.00241986
     atom    5 type  1   force =     0.00000726   -0.00000424   -0.00578669
     atom    6 type  1   force =    -0.00001553    0.00000894   -0.00054038
     atom    7 type  1   force =     0.00000724   -0.00000417   -0.00241975
     atom    8 type  1   force =     0.00000725   -0.00000418   -0.00578682
     atom    9 type  1   force =    -0.00001562    0.00000897   -0.00054015
     atom   10 type  1   force =     0.00000722   -0.00000420   -0.00241978
     atom   11 type  1   force =     0.00000730   -0.00000421   -0.00578686
     atom   12 type  1   force =    -0.00001558    0.00000900   -0.00054017
     atom   13 type  2   force =    -0.00000918    0.00000532    0.00101113
     atom   14 type  2   force =     0.00000085   -0.00000048    0.00855079
     atom   15 type  2   force =     0.00000380   -0.00000221    0.00167219
     atom   16 type  2   force =     0.00000383   -0.00000219    0.00167220
     atom   17 type  2   force =    -0.00000924    0.00000530    0.00101112
     atom   18 type  2   force =     0.00000083   -0.00000048    0.00855092
     atom   19 type  2   force =    -0.00000949    0.00000543    0.00101110
     atom   20 type  2   force =     0.00000072   -0.00000044    0.00855080
     atom   21 type  2   force =     0.00000394   -0.00000226    0.00167201
     atom   22 type  2   force =    -0.00000945    0.00000551    0.00101110
     atom   23 type  2   force =     0.00000074   -0.00000041    0.00855072
     atom   24 type  2   force =     0.00000392   -0.00000227    0.00167199
     The Hubbard contrib.    to forces
     atom    1 type  1   force =     0.00000000    0.00000000    0.00000000
     atom    2 type  1   force =     0.00000000    0.00000000    0.00000000
     atom    3 type  1   force =     0.00000000    0.00000000    0.00000000
     atom    4 type  1   force =     0.00000000    0.00000000    0.00000000
     atom    5 type  1   force =     0.00000000    0.00000000    0.00000000
     atom    6 type  1   force =     0.00000000    0.00000000    0.00000000
     atom    7 type  1   force =     0.00000000    0.00000000    0.00000000
     atom    8 type  1   force =     0.00000000    0.00000000    0.00000000
     atom    9 type  1   force =     0.00000000    0.00000000    0.00000000
     atom   10 type  1   force =     0.00000000    0.00000000    0.00000000
     atom   11 type  1   force =     0.00000000    0.00000000    0.00000000
     atom   12 type  1   force =     0.00000000    0.00000000    0.00000000
     atom   13 type  2   force =     0.00000000    0.00000000    0.00000000
     atom   14 type  2   force =     0.00000000    0.00000000    0.00000000
     atom   15 type  2   force =     0.00000000    0.00000000    0.00000000
     atom   16 type  2   force =     0.00000000    0.00000000    0.00000000
     atom   17 type  2   force =     0.00000000    0.00000000    0.00000000
     atom   18 type  2   force =     0.00000000    0.00000000    0.00000000
     atom   19 type  2   force =     0.00000000    0.00000000    0.00000000
     atom   20 type  2   force =     0.00000000    0.00000000    0.00000000
     atom   21 type  2   force =     0.00000000    0.00000000    0.00000000
     atom   22 type  2   force =     0.00000000    0.00000000    0.00000000
     atom   23 type  2   force =     0.00000000    0.00000000    0.00000000
     atom   24 type  2   force =     0.00000000    0.00000000    0.00000000
     The SCF correction term to forces
     atom    1 type  1   force =    -0.00000099    0.00000063    0.00000890
     atom    2 type  1   force =    -0.00000206    0.00000237   -0.00002380
     atom    3 type  1   force =     0.00000089   -0.00000126    0.00000305
     atom    4 type  1   force =    -0.00000316    0.00000121   -0.00002368
     atom    5 type  1   force =     0.00000181   -0.00000025   -0.00000078
     atom    6 type  1   force =     0.00000001    0.00000076    0.00000849
     atom    7 type  1   force =     0.00000284   -0.00000189   -0.00002708
     atom    8 type  1   force =    -0.00000050    0.00000065    0.00000492
     atom    9 type  1   force =     0.00000144    0.00000037    0.00000312
     atom   10 type  1   force =     0.00000402   -0.00000134   -0.00002649
     atom   11 type  1   force =    -0.00000199    0.00000058    0.00000395
     atom   12 type  1   force =     0.00000048   -0.00000052    0.00000321
     atom   13 type  2   force =    -0.00000928    0.00000406    0.00000407
     atom   14 type  2   force =    -0.00000088    0.00000054   -0.00000695
     atom   15 type  2   force =     0.00000399   -0.00000195   -0.00003237
     atom   16 type  2   force =     0.00000268   -0.00000240   -0.00003349
     atom   17 type  2   force =    -0.00000451    0.00000445    0.00000376
     atom   18 type  2   force =    -0.00000103    0.00000039   -0.00001141
     atom   19 type  2   force =     0.00000983   -0.00000147    0.00000443
     atom   20 type  2   force =     0.00000088   -0.00000044   -0.00000513
     atom   21 type  2   force =    -0.00000450    0.00000151   -0.00002260
     atom   22 type  2   force =     0.00000554   -0.00000712    0.00000382
     atom   23 type  2   force =     0.00000086   -0.00000057   -0.00000376
     atom   24 type  2   force =    -0.00000314    0.00000260   -0.00002145

     Total force =     0.065041     Total SCF correction =     0.000082

     Writing all to output data dir ./temp/GaAs_111_0D002Ha.save/

     init_run     :     26.62s CPU     16.98s WALL (       1 calls)
     electrons    :   1355.93s CPU    857.38s WALL (       1 calls)
     forces       :     12.29s CPU      7.74s WALL (       1 calls)

     Called by init_run:
     wfcinit      :     16.12s CPU      9.95s WALL (       1 calls)
     potinit      :      3.75s CPU      2.02s WALL (       1 calls)
     hinit0       :      6.37s CPU      4.63s WALL (       1 calls)

     Called by electrons:
     c_bands      :   1147.68s CPU    746.76s WALL (      26 calls)
     sum_band     :    202.81s CPU    105.83s WALL (      26 calls)
     v_of_rho     :      3.71s CPU      3.09s WALL (      26 calls)
     mix_rho      :      1.22s CPU      1.15s WALL (      26 calls)

     Called by c_bands:
     init_us_2    :     14.31s CPU      7.22s WALL (     378 calls)
     init_us_2:cp :     14.31s CPU      7.22s WALL (     378 calls)
     cegterg      :   1074.59s CPU    689.72s WALL (     182 calls)

     Called by *egterg:
     cdiaghg      :     55.99s CPU     33.01s WALL (    1342 calls)
     h_psi        :    842.16s CPU    488.00s WALL (    1356 calls)
     g_psi        :      3.73s CPU      1.88s WALL (    1167 calls)

     Called by h_psi:
     h_psi:calbec :     55.36s CPU     48.40s WALL (    1356 calls)
     vloc_psi     :    725.35s CPU    379.60s WALL (    1356 calls)
     add_vuspsi   :     54.06s CPU     54.22s WALL (    1356 calls)

     General routines
     calbec       :     58.12s CPU     51.02s WALL (    1384 calls)
     fft          :      1.94s CPU      2.04s WALL (     271 calls)
     ffts         :      0.10s CPU      0.12s WALL (      26 calls)
     fftw         :    683.85s CPU    361.23s WALL (  211176 calls)

     Parallel routines

     PWSCF        :  23m17.59s CPU  14m47.56s WALL


   This run was terminated on:  17:41: 3  20Mar2025            

=------------------------------------------------------------------------------=
   JOB DONE.
=------------------------------------------------------------------------------=
