
     Program PWSCF v.7.2 starts on 20Mar2025 at 17:12:13 

     This program is part of the open-source Quantum ESPRESSO suite
     for quantum simulation of materials; please cite
         "P. Giannozzi et al., J. Phys.:Condens. Matter 21 395502 (2009);
         "P. Giannozzi et al., J. Phys.:Condens. Matter 29 465901 (2017);
         "P. Giannozzi et al., J. Chem. Phys. 152 154105 (2020);
          URL http://www.quantum-espresso.org", 
     in publications or presentations arising from this work. More details at
     http://www.quantum-espresso.org/quote

     Parallel version (MPI & OpenMP), running on     288 processor cores
     Number of MPI processes:               144
     Threads/MPI process:                     2

     MPI processes distributed on     6 nodes
     723567 MiB available memory on the printing compute node when the environment starts

     Reading input from GaAs111_0D001Ha.scf.in

     Current dimensions of program PWSCF are:
     Max number of different atomic species (ntypx) = 10
     Max number of k-points (npk) =  40000
     Max angular momentum in pseudopotentials (lmaxx) =  4
     Found identity + (  0.5000 -0.5000  0.0000) symmetry
     This is a supercell, fractional translations are disabled

     K-points division:     npool     =       8
     R & G space division:  proc/nbgrp/npool/nimage =      18
     Subspace diagonalization in iterative solution of the eigenvalue problem:
     one sub-group per band group will be used
     ELPA distributed-memory algorithm (size of sub-group:  2*  2 procs)


     Parallelization info
     --------------------
     sticks:   dense  smooth     PW     G-vecs:    dense   smooth      PW
     Min         288     288     78                82920    82920   11697
     Max         289     289     80                82953    82953   11708
     Sum        5197    5197   1417              1492917  1492917  210619

     Using Slab Decomposition



     bravais-lattice index     =            0
     lattice parameter (alat)  =      15.3672  a.u.
     unit-cell volume          =   15443.3545 (a.u.)^3
     number of atoms/cell      =           24
     number of atomic types    =            2
     number of electrons       =       336.00
     number of Kohn-Sham states=          202
     kinetic-energy cutoff     =      80.0000  Ry
     charge density cutoff     =     320.0000  Ry
     scf convergence threshold =      1.0E-09
     mixing beta               =       0.7000
     number of iterations used =            8  plain     mixing
     Exchange-correlation= PBE
                           (   1   4   3   4   0   0   0)

     celldm(1)=  15.367226  celldm(2)=   0.000000  celldm(3)=   0.000000
     celldm(4)=   0.000000  celldm(5)=   0.000000  celldm(6)=   0.000000

     crystal axes: (cart. coord. in units of alat)
               a(1) = (   1.000000   0.000000   0.000000 )  
               a(2) = (  -0.500000   0.866025   0.000000 )  
               a(3) = (   0.000000   0.000000   4.913881 )  

     reciprocal axes: (cart. coord. in units 2 pi/alat)
               b(1) = (  1.000000  0.577350 -0.000000 )  
               b(2) = (  0.000000  1.154701  0.000000 )  
               b(3) = (  0.000000 -0.000000  0.203505 )  


     PseudoPot. # 1 for Ga read from file:
     ./Ga.upf
     MD5 check sum: 93d095ea82f116b4e2622455073fb9ee
     Pseudo is Norm-conserving + core correction, Zval = 13.0
     Generated using ONCVPSP code by D. R. Hamann
     Using radial grid of 1902 points,  6 beta functions with: 
                l(1) =   0
                l(2) =   0
                l(3) =   1
                l(4) =   1
                l(5) =   2
                l(6) =   2

     PseudoPot. # 2 for As read from file:
     ./As.upf
     MD5 check sum: 280d9fd8ba68a23ae96e751fcede625c
     Pseudo is Norm-conserving + core correction, Zval = 15.0
     Generated using ONCVPSP code by D. R. Hamann
     Using radial grid of 1350 points,  6 beta functions with: 
                l(1) =   0
                l(2) =   0
                l(3) =   1
                l(4) =   1
                l(5) =   2
                l(6) =   2

     atomic species   valence    mass     pseudopotential
        Ga            13.00    69.72000     Ga( 1.00)
        As            15.00    74.92000     As( 1.00)

     No symmetry found



   Cartesian axes

     site n.     atom                  positions (alat units)
         1           Ga  tau(   1) = (   0.0000000   0.0000000   1.8955990  )
         2           Ga  tau(   2) = (   0.0000000   0.5773504   2.3038472  )
         3           Ga  tau(   3) = (   0.5000000   0.2886751   2.7120955  )
         4           Ga  tau(   4) = (   0.7500000   0.1443376   2.3038472  )
         5           Ga  tau(   5) = (  -0.2500001   0.7216878   2.7120955  )
         6           Ga  tau(   6) = (   0.2499999   0.4330127   1.8955990  )
         7           Ga  tau(   7) = (   0.4999999   0.5773504   2.3038472  )
         8           Ga  tau(   8) = (  -0.0000001   0.2886751   2.7120955  )
         9           Ga  tau(   9) = (   0.5000000   0.0000000   1.8955990  )
        10           Ga  tau(  10) = (   0.2500000   0.1443376   2.3038472  )
        11           Ga  tau(  11) = (   0.2500000   0.7216878   2.7120955  )
        12           Ga  tau(  12) = (  -0.2500000   0.4330127   1.8955990  )
        13           As  tau(  13) = (   0.7500000   0.1443376   2.6100335  )
        14           As  tau(  14) = (  -0.2500001   0.7216878   3.0182815  )
        15           As  tau(  15) = (   0.2499999   0.4330127   2.2017852  )
        16           As  tau(  16) = (   0.0000000   0.0000000   2.2017852  )
        17           As  tau(  17) = (   0.0000000   0.5773504   2.6100335  )
        18           As  tau(  18) = (   0.5000000   0.2886751   3.0182815  )
        19           As  tau(  19) = (   0.2500000   0.1443376   2.6100335  )
        20           As  tau(  20) = (   0.2500000   0.7216878   3.0182815  )
        21           As  tau(  21) = (  -0.2500000   0.4330127   2.2017852  )
        22           As  tau(  22) = (   0.4999999   0.5773504   2.6100335  )
        23           As  tau(  23) = (  -0.0000001   0.2886751   3.0182815  )
        24           As  tau(  24) = (   0.5000000   0.0000000   2.2017852  )

     number of k points=    50  Fermi-Dirac smearing, width (Ry)=  0.0000
                       cart. coord. in units 2pi/alat
        k(    1) = (   0.0500000   0.0866025   0.0000000), wk =   0.0400000
        k(    2) = (   0.0500000   0.2020726   0.0000000), wk =   0.0400000
        k(    3) = (   0.0500000   0.3175426   0.0000000), wk =   0.0400000
        k(    4) = (   0.0500000   0.4330127   0.0000000), wk =   0.0400000
        k(    5) = (   0.0500000   0.5484828   0.0000000), wk =   0.0400000
        k(    6) = (   0.0500000  -0.4907477   0.0000000), wk =   0.0400000
        k(    7) = (   0.0500000  -0.3752777   0.0000000), wk =   0.0400000
        k(    8) = (   0.0500000  -0.2598076   0.0000000), wk =   0.0400000
        k(    9) = (   0.0500000  -0.1443376   0.0000000), wk =   0.0400000
        k(   10) = (   0.0500000  -0.0288675   0.0000000), wk =   0.0400000
        k(   11) = (   0.1500000   0.1443376   0.0000000), wk =   0.0400000
        k(   12) = (   0.1500000   0.2598076   0.0000000), wk =   0.0400000
        k(   13) = (   0.1500000   0.3752777   0.0000000), wk =   0.0400000
        k(   14) = (   0.1500000   0.4907477   0.0000000), wk =   0.0400000
        k(   15) = (   0.1500000   0.6062178   0.0000000), wk =   0.0400000
        k(   16) = (   0.1500000  -0.4330127   0.0000000), wk =   0.0400000
        k(   17) = (   0.1500000  -0.3175426   0.0000000), wk =   0.0400000
        k(   18) = (   0.1500000  -0.2020726   0.0000000), wk =   0.0400000
        k(   19) = (   0.1500000  -0.0866025   0.0000000), wk =   0.0400000
        k(   20) = (   0.1500000   0.0288675   0.0000000), wk =   0.0400000
        k(   21) = (   0.2500000   0.2020726   0.0000000), wk =   0.0400000
        k(   22) = (   0.2500000   0.3175426   0.0000000), wk =   0.0400000
        k(   23) = (   0.2500000   0.4330127   0.0000000), wk =   0.0400000
        k(   24) = (   0.2500000   0.5484828   0.0000000), wk =   0.0400000
        k(   25) = (   0.2500000   0.6639528   0.0000000), wk =   0.0400000
        k(   26) = (   0.2500000  -0.3752777   0.0000000), wk =   0.0400000
        k(   27) = (   0.2500000  -0.2598076   0.0000000), wk =   0.0400000
        k(   28) = (   0.2500000  -0.1443376   0.0000000), wk =   0.0400000
        k(   29) = (   0.2500000  -0.0288675   0.0000000), wk =   0.0400000
        k(   30) = (   0.2500000   0.0866025   0.0000000), wk =   0.0400000
        k(   31) = (   0.3500000   0.2598076   0.0000000), wk =   0.0400000
        k(   32) = (   0.3500000   0.3752777   0.0000000), wk =   0.0400000
        k(   33) = (   0.3500000   0.4907477   0.0000000), wk =   0.0400000
        k(   34) = (   0.3500000   0.6062178   0.0000000), wk =   0.0400000
        k(   35) = (   0.3500000   0.7216878   0.0000000), wk =   0.0400000
        k(   36) = (   0.3500000  -0.3175426   0.0000000), wk =   0.0400000
        k(   37) = (   0.3500000  -0.2020726   0.0000000), wk =   0.0400000
        k(   38) = (   0.3500000  -0.0866025   0.0000000), wk =   0.0400000
        k(   39) = (   0.3500000   0.0288675   0.0000000), wk =   0.0400000
        k(   40) = (   0.3500000   0.1443376   0.0000000), wk =   0.0400000
        k(   41) = (   0.4500000   0.3175426   0.0000000), wk =   0.0400000
        k(   42) = (   0.4500000   0.4330127   0.0000000), wk =   0.0400000
        k(   43) = (   0.4500000   0.5484828   0.0000000), wk =   0.0400000
        k(   44) = (   0.4500000   0.6639528   0.0000000), wk =   0.0400000
        k(   45) = (   0.4500000   0.7794229   0.0000000), wk =   0.0400000
        k(   46) = (   0.4500000  -0.2598076   0.0000000), wk =   0.0400000
        k(   47) = (   0.4500000  -0.1443376   0.0000000), wk =   0.0400000
        k(   48) = (   0.4500000  -0.0288675   0.0000000), wk =   0.0400000
        k(   49) = (   0.4500000   0.0866025   0.0000000), wk =   0.0400000
        k(   50) = (   0.4500000   0.2020726   0.0000000), wk =   0.0400000

     Dense  grid:  1492917 G-vectors     FFT dimensions: (  90,  90, 432)

     Estimated max dynamical RAM per process >     508.21 MB

     Estimated total dynamical RAM >      68.98 GB

     Initial potential from superposition of free atoms

     starting charge     335.9650, renormalised to     336.0000

     negative rho (up, down):  1.366E-04 0.000E+00

     Adding external electric field

     Computed dipole along edir(3) : 
        Dipole               -0.0747 Ry au,         -0.1897 Debye
        Dipole field         -0.0001 Ry au, 

        E field amplitude [Ha a.u.]:  1.0000E-03
        Potential amp.        0.1282 Ry
        Total length         60.4102 bohr

     Starting wfcs are  216 atomic wfcs

     total cpu time spent up to now is       16.9 secs

     Self-consistent Calculation

     iteration #  1     ecut=    80.00 Ry     beta= 0.70
     Davidson diagonalization with overlap
     ethr =  1.00E-02,  avg # of iterations =  3.0

     Threshold (ethr) on eigenvalues was too large:
     Diagonalizing with lowered threshold

     Davidson diagonalization with overlap
     ethr =  3.82E-04,  avg # of iterations =  2.4

     negative rho (up, down):  3.383E-05 0.000E+00

     Adding external electric field

     Computed dipole along edir(3) : 
        Dipole               -6.4784 Ry au,        -16.4666 Debye
        Dipole field         -0.0053 Ry au, 

        E field amplitude [Ha a.u.]:  1.0000E-03
        Potential amp.        0.7577 Ry
        Total length         60.4102 bohr


     total cpu time spent up to now is       74.2 secs

     total energy              =   -4145.88554690 Ry
     estimated scf accuracy    <       1.29007378 Ry

     iteration #  2     ecut=    80.00 Ry     beta= 0.70
     Davidson diagonalization with overlap
     ethr =  3.84E-04,  avg # of iterations = 17.9

     negative rho (up, down):  1.430E-05 0.000E+00

     Adding external electric field

     Computed dipole along edir(3) : 
        Dipole                3.9630 Ry au,         10.0728 Debye
        Dipole field          0.0032 Ry au, 

        E field amplitude [Ha a.u.]:  1.0000E-03
        Potential amp.       -0.2688 Ry
        Total length         60.4102 bohr


     total cpu time spent up to now is      144.1 secs

     total energy              =   -4129.77671712 Ry
     estimated scf accuracy    <     949.46312661 Ry

     iteration #  3     ecut=    80.00 Ry     beta= 0.70
     Davidson diagonalization with overlap
     ethr =  3.84E-04,  avg # of iterations = 14.1

     negative rho (up, down):  1.188E-05 0.000E+00

     Adding external electric field

     Computed dipole along edir(3) : 
        Dipole                2.5340 Ry au,          6.4408 Debye
        Dipole field          0.0021 Ry au, 

        E field amplitude [Ha a.u.]:  1.0000E-03
        Potential amp.       -0.1283 Ry
        Total length         60.4102 bohr


     total cpu time spent up to now is      199.8 secs

     total energy              =   -4144.18668219 Ry
     estimated scf accuracy    <      51.07892224 Ry

     iteration #  4     ecut=    80.00 Ry     beta= 0.70
     Davidson diagonalization with overlap
     ethr =  3.84E-04,  avg # of iterations = 10.0

     negative rho (up, down):  7.206E-06 0.000E+00

     Adding external electric field

     Computed dipole along edir(3) : 
        Dipole                0.7127 Ry au,          1.8115 Debye
        Dipole field          0.0006 Ry au, 

        E field amplitude [Ha a.u.]:  1.0000E-03
        Potential amp.        0.0508 Ry
        Total length         60.4102 bohr


     total cpu time spent up to now is      238.7 secs

     total energy              =   -4146.19555022 Ry
     estimated scf accuracy    <      21.04842627 Ry

     iteration #  5     ecut=    80.00 Ry     beta= 0.70
     Davidson diagonalization with overlap
     ethr =  3.84E-04,  avg # of iterations =  2.8

     negative rho (up, down):  2.677E-06 0.000E+00

     Adding external electric field

     Computed dipole along edir(3) : 
        Dipole                1.4197 Ry au,          3.6085 Debye
        Dipole field          0.0012 Ry au, 

        E field amplitude [Ha a.u.]:  1.0000E-03
        Potential amp.       -0.0188 Ry
        Total length         60.4102 bohr


     total cpu time spent up to now is      266.4 secs

     total energy              =   -4146.59221724 Ry
     estimated scf accuracy    <       0.82131574 Ry

     iteration #  6     ecut=    80.00 Ry     beta= 0.70
     Davidson diagonalization with overlap
     ethr =  2.44E-04,  avg # of iterations =  1.6

     negative rho (up, down):  1.910E-07 0.000E+00

     Adding external electric field

     Computed dipole along edir(3) : 
        Dipole                1.4178 Ry au,          3.6037 Debye
        Dipole field          0.0012 Ry au, 

        E field amplitude [Ha a.u.]:  1.0000E-03
        Potential amp.       -0.0186 Ry
        Total length         60.4102 bohr


     total cpu time spent up to now is      292.3 secs

     total energy              =   -4146.60895481 Ry
     estimated scf accuracy    <       0.12218642 Ry

     iteration #  7     ecut=    80.00 Ry     beta= 0.70
     Davidson diagonalization with overlap
     ethr =  3.64E-05,  avg # of iterations =  8.9

     Adding external electric field

     Computed dipole along edir(3) : 
        Dipole                1.3759 Ry au,          3.4971 Debye
        Dipole field          0.0011 Ry au, 

        E field amplitude [Ha a.u.]:  1.0000E-03
        Potential amp.       -0.0144 Ry
        Total length         60.4102 bohr


     total cpu time spent up to now is      325.4 secs

     total energy              =   -4146.60903363 Ry
     estimated scf accuracy    <       0.05847537 Ry

     iteration #  8     ecut=    80.00 Ry     beta= 0.70
     Davidson diagonalization with overlap
     ethr =  1.74E-05,  avg # of iterations =  2.7

     Adding external electric field

     Computed dipole along edir(3) : 
        Dipole                1.2268 Ry au,          3.1181 Debye
        Dipole field          0.0010 Ry au, 

        E field amplitude [Ha a.u.]:  1.0000E-03
        Potential amp.        0.0002 Ry
        Total length         60.4102 bohr


     total cpu time spent up to now is      353.4 secs

     total energy              =   -4146.60774265 Ry
     estimated scf accuracy    <       0.03455383 Ry

     iteration #  9     ecut=    80.00 Ry     beta= 0.70
     Davidson diagonalization with overlap
     ethr =  1.03E-05,  avg # of iterations =  3.7

     negative rho (up, down):  9.170E-08 0.000E+00

     Adding external electric field

     Computed dipole along edir(3) : 
        Dipole                1.0842 Ry au,          2.7559 Debye
        Dipole field          0.0009 Ry au, 

        E field amplitude [Ha a.u.]:  1.0000E-03
        Potential amp.        0.0142 Ry
        Total length         60.4102 bohr


     total cpu time spent up to now is      381.5 secs

     total energy              =   -4146.60586691 Ry
     estimated scf accuracy    <       0.02327730 Ry

     iteration # 10     ecut=    80.00 Ry     beta= 0.70
     Davidson diagonalization with overlap
     c_bands:  1 eigenvalues not converged
     ethr =  6.93E-06,  avg # of iterations =  9.0

     negative rho (up, down):  1.056E-07 0.000E+00

     Adding external electric field

     Computed dipole along edir(3) : 
        Dipole                0.9406 Ry au,          2.3909 Debye
        Dipole field          0.0008 Ry au, 

        E field amplitude [Ha a.u.]:  1.0000E-03
        Potential amp.        0.0283 Ry
        Total length         60.4102 bohr


     total cpu time spent up to now is      414.0 secs

     total energy              =   -4146.60475574 Ry
     estimated scf accuracy    <       0.02304872 Ry

     iteration # 11     ecut=    80.00 Ry     beta= 0.70
     Davidson diagonalization with overlap
     ethr =  6.86E-06,  avg # of iterations =  6.9

     negative rho (up, down):  8.998E-07 0.000E+00

     Adding external electric field

     Computed dipole along edir(3) : 
        Dipole               -0.2304 Ry au,         -0.5857 Debye
        Dipole field         -0.0002 Ry au, 

        E field amplitude [Ha a.u.]:  1.0000E-03
        Potential amp.        0.1435 Ry
        Total length         60.4102 bohr


     total cpu time spent up to now is      446.2 secs

     total energy              =   -4146.59891529 Ry
     estimated scf accuracy    <       0.01158697 Ry

     iteration # 12     ecut=    80.00 Ry     beta= 0.70
     Davidson diagonalization with overlap
     ethr =  3.45E-06,  avg # of iterations = 14.3

     negative rho (up, down):  5.488E-07 0.000E+00

     Adding external electric field

     Computed dipole along edir(3) : 
        Dipole               -0.1926 Ry au,         -0.4896 Debye
        Dipole field         -0.0002 Ry au, 

        E field amplitude [Ha a.u.]:  1.0000E-03
        Potential amp.        0.1398 Ry
        Total length         60.4102 bohr


     total cpu time spent up to now is      487.1 secs

     total energy              =   -4146.59893146 Ry
     estimated scf accuracy    <       0.01292863 Ry

     iteration # 13     ecut=    80.00 Ry     beta= 0.70
     Davidson diagonalization with overlap
     ethr =  3.45E-06,  avg # of iterations =  3.1

     negative rho (up, down):  1.278E-07 0.000E+00

     Adding external electric field

     Computed dipole along edir(3) : 
        Dipole               -0.2141 Ry au,         -0.5442 Debye
        Dipole field         -0.0002 Ry au, 

        E field amplitude [Ha a.u.]:  1.0000E-03
        Potential amp.        0.1419 Ry
        Total length         60.4102 bohr


     total cpu time spent up to now is      514.6 secs

     total energy              =   -4146.60044694 Ry
     estimated scf accuracy    <       0.00069575 Ry

     iteration # 14     ecut=    80.00 Ry     beta= 0.70
     Davidson diagonalization with overlap
     c_bands:  1 eigenvalues not converged
     ethr =  2.07E-07,  avg # of iterations =  9.3

     negative rho (up, down):  6.349E-08 0.000E+00

     Adding external electric field

     Computed dipole along edir(3) : 
        Dipole               -0.2156 Ry au,         -0.5481 Debye
        Dipole field         -0.0002 Ry au, 

        E field amplitude [Ha a.u.]:  1.0000E-03
        Potential amp.        0.1420 Ry
        Total length         60.4102 bohr


     total cpu time spent up to now is      547.2 secs

     total energy              =   -4146.60044723 Ry
     estimated scf accuracy    <       0.00070908 Ry

     iteration # 15     ecut=    80.00 Ry     beta= 0.70
     Davidson diagonalization with overlap
     ethr =  2.07E-07,  avg # of iterations =  1.6

     negative rho (up, down):  2.902E-08 0.000E+00

     Adding external electric field

     Computed dipole along edir(3) : 
        Dipole               -0.2187 Ry au,         -0.5559 Debye
        Dipole field         -0.0002 Ry au, 

        E field amplitude [Ha a.u.]:  1.0000E-03
        Potential amp.        0.1423 Ry
        Total length         60.4102 bohr


     total cpu time spent up to now is      573.2 secs

     total energy              =   -4146.60052079 Ry
     estimated scf accuracy    <       0.00007784 Ry

     iteration # 16     ecut=    80.00 Ry     beta= 0.70
     Davidson diagonalization with overlap
     ethr =  2.32E-08,  avg # of iterations =  2.8

     Adding external electric field

     Computed dipole along edir(3) : 
        Dipole               -0.2211 Ry au,         -0.5619 Debye
        Dipole field         -0.0002 Ry au, 

        E field amplitude [Ha a.u.]:  1.0000E-03
        Potential amp.        0.1426 Ry
        Total length         60.4102 bohr


     total cpu time spent up to now is      600.9 secs

     total energy              =   -4146.60052658 Ry
     estimated scf accuracy    <       0.00000680 Ry

     iteration # 17     ecut=    80.00 Ry     beta= 0.70
     Davidson diagonalization with overlap
     c_bands:  1 eigenvalues not converged
     ethr =  2.02E-09,  avg # of iterations =  7.3

     negative rho (up, down):  2.712E-06 0.000E+00

     Adding external electric field

     Computed dipole along edir(3) : 
        Dipole               -0.2216 Ry au,         -0.5632 Debye
        Dipole field         -0.0002 Ry au, 

        E field amplitude [Ha a.u.]:  1.0000E-03
        Potential amp.        0.1426 Ry
        Total length         60.4102 bohr


     total cpu time spent up to now is      634.3 secs

     total energy              =   -4146.60052696 Ry
     estimated scf accuracy    <       0.00000674 Ry

     iteration # 18     ecut=    80.00 Ry     beta= 0.70
     Davidson diagonalization with overlap
     ethr =  2.00E-09,  avg # of iterations =  4.9

     negative rho (up, down):  1.253E-06 0.000E+00

     Adding external electric field

     Computed dipole along edir(3) : 
        Dipole               -0.2222 Ry au,         -0.5649 Debye
        Dipole field         -0.0002 Ry au, 

        E field amplitude [Ha a.u.]:  1.0000E-03
        Potential amp.        0.1427 Ry
        Total length         60.4102 bohr


     total cpu time spent up to now is      663.7 secs

     total energy              =   -4146.60052696 Ry
     estimated scf accuracy    <       0.00000651 Ry

     iteration # 19     ecut=    80.00 Ry     beta= 0.70
     Davidson diagonalization with overlap
     ethr =  1.94E-09,  avg # of iterations =  1.4

     negative rho (up, down):  5.188E-05 0.000E+00

     Adding external electric field

     Computed dipole along edir(3) : 
        Dipole               -0.2245 Ry au,         -0.5706 Debye
        Dipole field         -0.0002 Ry au, 

        E field amplitude [Ha a.u.]:  1.0000E-03
        Potential amp.        0.1429 Ry
        Total length         60.4102 bohr


     total cpu time spent up to now is      689.7 secs

     total energy              =   -4146.60052733 Ry
     estimated scf accuracy    <       0.00000081 Ry

     iteration # 20     ecut=    80.00 Ry     beta= 0.70
     Davidson diagonalization with overlap
     ethr =  2.40E-10,  avg # of iterations =  3.1

     negative rho (up, down):  1.036E-05 0.000E+00

     Adding external electric field

     Computed dipole along edir(3) : 
        Dipole               -0.2226 Ry au,         -0.5659 Debye
        Dipole field         -0.0002 Ry au, 

        E field amplitude [Ha a.u.]:  1.0000E-03
        Potential amp.        0.1427 Ry
        Total length         60.4102 bohr


     total cpu time spent up to now is      718.3 secs

     total energy              =   -4146.60052711 Ry
     estimated scf accuracy    <       0.00000574 Ry

     iteration # 21     ecut=    80.00 Ry     beta= 0.70
     Davidson diagonalization with overlap
     ethr =  2.40E-10,  avg # of iterations =  2.2

     negative rho (up, down):  1.925E-06 0.000E+00

     Adding external electric field

     Computed dipole along edir(3) : 
        Dipole               -0.2222 Ry au,         -0.5647 Debye
        Dipole field         -0.0002 Ry au, 

        E field amplitude [Ha a.u.]:  1.0000E-03
        Potential amp.        0.1427 Ry
        Total length         60.4102 bohr


     total cpu time spent up to now is      745.5 secs

     total energy              =   -4146.60052743 Ry
     estimated scf accuracy    <       0.00000007 Ry

     iteration # 22     ecut=    80.00 Ry     beta= 0.70
     Davidson diagonalization with overlap
     ethr =  2.06E-11,  avg # of iterations =  2.3

     negative rho (up, down):  1.789E-06 0.000E+00

     Adding external electric field

     Computed dipole along edir(3) : 
        Dipole               -0.2223 Ry au,         -0.5650 Debye
        Dipole field         -0.0002 Ry au, 

        E field amplitude [Ha a.u.]:  1.0000E-03
        Potential amp.        0.1427 Ry
        Total length         60.4102 bohr


     total cpu time spent up to now is      772.7 secs

     total energy              =   -4146.60052744 Ry
     estimated scf accuracy    <       0.00000002 Ry

     iteration # 23     ecut=    80.00 Ry     beta= 0.70
     Davidson diagonalization with overlap
     ethr =  5.40E-12,  avg # of iterations =  1.5

     negative rho (up, down):  9.459E-07 0.000E+00

     Adding external electric field

     Computed dipole along edir(3) : 
        Dipole               -0.2223 Ry au,         -0.5650 Debye
        Dipole field         -0.0002 Ry au, 

        E field amplitude [Ha a.u.]:  1.0000E-03
        Potential amp.        0.1427 Ry
        Total length         60.4102 bohr


     total cpu time spent up to now is      798.6 secs

     total energy              =   -4146.60052744 Ry
     estimated scf accuracy    <          3.8E-09 Ry

     iteration # 24     ecut=    80.00 Ry     beta= 0.70
     Davidson diagonalization with overlap
     ethr =  1.12E-12,  avg # of iterations =  2.0

     Adding external electric field

     Computed dipole along edir(3) : 
        Dipole               -0.2222 Ry au,         -0.5649 Debye
        Dipole field         -0.0002 Ry au, 

        E field amplitude [Ha a.u.]:  1.0000E-03
        Potential amp.        0.1427 Ry
        Total length         60.4102 bohr


     total cpu time spent up to now is      825.0 secs

     End of self-consistent calculation

          k = 0.0500 0.0866 0.0000 (186449 PWs)   bands (ev):

   -37.2470 -37.2470 -37.2470 -37.2470 -37.2470 -37.2463 -37.2463 -37.2463
   -37.0571 -37.0570 -37.0569 -37.0568 -37.0552 -37.0551 -37.0550 -37.0550
   -36.9965 -36.9961 -36.9961 -36.9961 -36.7230 -36.7225 -36.7225 -36.7225
   -36.7114 -36.7113 -36.7113 -36.7110 -36.7110 -36.7110 -36.7110 -36.7109
   -36.6895 -36.6895 -36.6895 -36.6895 -36.6895 -36.6884 -36.6884 -36.6884
   -36.6013 -36.6013 -36.6013 -36.6013 -36.6013 -36.6002 -36.6002 -36.6002
   -36.5602 -36.5602 -36.5602 -36.5599 -36.5599 -36.5599 -36.5598 -36.5598
   -36.5566 -36.5560 -36.5560 -36.5560 -16.6579 -16.6579 -16.6576 -16.6563
   -16.6560 -16.6421 -16.6421 -16.6421 -16.5283 -16.5254 -16.5253 -16.5253
   -16.5180 -16.5167 -16.5167 -16.5120 -16.5120 -16.5110 -16.5109 -16.5092
   -16.3331 -16.3329 -16.3329 -16.3183 -16.2845 -16.2844 -16.2844 -16.2756
   -16.2748 -16.2559 -16.2559 -16.2557 -16.2287 -16.2287 -16.2287 -16.2189
   -16.2186 -16.2130 -16.2129 -16.2129 -16.0532 -16.0529 -16.0529 -16.0096
   -15.9925 -15.9920 -15.9679 -15.9679 -15.9679 -15.9668 -15.9668 -15.9663
   -15.9311 -15.9310 -15.9310 -15.9183 -15.9182 -15.9182 -15.9180 -15.9179
   -13.5773 -12.8732 -12.1777 -12.1777 -12.1274 -11.8409 -11.8409 -11.8223
   -11.5140 -11.1917 -11.1914 -11.1914  -8.0292  -7.8484  -7.8313  -7.8313
    -7.4987  -7.4469  -7.4469  -6.5395  -6.5395  -6.5209  -6.1855  -4.3832
    -4.3777  -4.3777  -4.1030  -3.7995  -3.7310  -3.7310  -3.3987  -3.2639
    -3.2639  -3.0502  -3.0407  -3.0407  -2.9598  -2.9597  -2.9207  -2.5738
    -2.4047  -2.2848  -2.2848  -2.2753  -2.1142  -2.0005  -1.8920  -1.7699
    -1.7216  -1.7216  -1.0127  -0.9574  -0.9574  -0.5050  -0.3931  -0.3245
    -0.1179   0.3609   0.3609   0.4716   0.6226   0.6226   0.7183   1.3543
     1.4810   1.4810   1.5237   1.6551   1.6734   1.6734   2.1860   2.3621
     2.6054   2.7227   2.7227   2.7594   2.8301   3.0842   3.1830   3.2898
     3.2950   3.3763

          k = 0.0500 0.2021 0.0000 (186558 PWs)   bands (ev):

   -37.2470 -37.2470 -37.2470 -37.2470 -37.2469 -37.2463 -37.2463 -37.2463
   -37.0571 -37.0570 -37.0569 -37.0568 -37.0552 -37.0551 -37.0550 -37.0550
   -36.9965 -36.9962 -36.9961 -36.9961 -36.7230 -36.7225 -36.7225 -36.7225
   -36.7114 -36.7113 -36.7113 -36.7110 -36.7110 -36.7110 -36.7110 -36.7110
   -36.6895 -36.6895 -36.6895 -36.6894 -36.6894 -36.6885 -36.6885 -36.6885
   -36.6013 -36.6013 -36.6013 -36.6013 -36.6012 -36.6002 -36.6002 -36.6002
   -36.5602 -36.5601 -36.5601 -36.5599 -36.5599 -36.5599 -36.5598 -36.5598
   -36.5565 -36.5560 -36.5560 -36.5560 -16.6578 -16.6573 -16.6567 -16.6564
   -16.6551 -16.6429 -16.6428 -16.6428 -16.5280 -16.5254 -16.5254 -16.5254
   -16.5178 -16.5165 -16.5163 -16.5121 -16.5119 -16.5112 -16.5111 -16.5096
   -16.3319 -16.3317 -16.3314 -16.3184 -16.2851 -16.2849 -16.2845 -16.2771
   -16.2734 -16.2568 -16.2565 -16.2563 -16.2282 -16.2281 -16.2280 -16.2196
   -16.2185 -16.2138 -16.2137 -16.2135 -16.0523 -16.0516 -16.0507 -16.0135
   -15.9909 -15.9893 -15.9694 -15.9692 -15.9689 -15.9681 -15.9666 -15.9661
   -15.9307 -15.9305 -15.9303 -15.9190 -15.9190 -15.9187 -15.9183 -15.9180
   -13.5193 -12.8220 -12.3316 -12.2194 -12.1104 -11.9093 -11.8511 -11.8066
   -11.4893 -11.1918 -11.1882 -11.1878  -7.9817  -7.8259  -7.7854  -7.7367
    -7.4608  -7.3489  -7.2331  -6.5773  -6.5480  -6.5101  -6.1853  -4.4331
    -4.3929  -4.3928  -4.1957  -3.9552  -3.8582  -3.7385  -3.6744  -3.5322
    -3.2453  -3.0529  -3.0055  -2.9928  -2.9782  -2.8537  -2.8165  -2.8088
    -2.5734  -2.4348  -2.3111  -2.3056  -2.2925  -2.0589  -1.9846  -1.7104
    -1.6053  -1.4951  -1.1808  -1.0654  -0.9243  -0.7232  -0.4290   0.1087
     0.3298   0.3959   0.6601   0.6654   0.8054   0.8923   0.9697   1.2032
     1.2425   1.5360   1.5770   1.7131   1.7561   1.7973   1.8498   2.3675
     2.6914   2.7355   2.7842   2.8356   2.9094   2.9718   3.0934   3.1930
     3.2493   3.3170

          k = 0.0500 0.3175 0.0000 (186601 PWs)   bands (ev):

   -37.2470 -37.2470 -37.2469 -37.2469 -37.2469 -37.2464 -37.2464 -37.2463
   -37.0571 -37.0570 -37.0569 -37.0569 -37.0551 -37.0551 -37.0551 -37.0550
   -36.9965 -36.9962 -36.9961 -36.9961 -36.7229 -36.7226 -36.7225 -36.7225
   -36.7114 -36.7113 -36.7113 -36.7111 -36.7110 -36.7110 -36.7110 -36.7110
   -36.6895 -36.6895 -36.6894 -36.6893 -36.6893 -36.6886 -36.6886 -36.6885
   -36.6013 -36.6013 -36.6012 -36.6012 -36.6011 -36.6004 -36.6003 -36.6003
   -36.5602 -36.5601 -36.5601 -36.5599 -36.5599 -36.5599 -36.5598 -36.5598
   -36.5565 -36.5561 -36.5560 -36.5560 -16.6576 -16.6565 -16.6563 -16.6554
   -16.6537 -16.6444 -16.6439 -16.6439 -16.5276 -16.5257 -16.5254 -16.5253
   -16.5174 -16.5163 -16.5156 -16.5123 -16.5117 -16.5117 -16.5115 -16.5101
   -16.3303 -16.3299 -16.3289 -16.3187 -16.2859 -16.2856 -16.2846 -16.2792
   -16.2711 -16.2584 -16.2573 -16.2570 -16.2272 -16.2271 -16.2269 -16.2207
   -16.2183 -16.2152 -16.2149 -16.2145 -16.0510 -16.0498 -16.0469 -16.0190
   -15.9882 -15.9858 -15.9716 -15.9714 -15.9703 -15.9702 -15.9665 -15.9660
   -15.9299 -15.9297 -15.9292 -15.9206 -15.9200 -15.9195 -15.9184 -15.9181
   -13.4167 -12.7321 -12.5431 -12.2579 -12.1054 -12.0365 -11.8602 -11.7908
   -11.4472 -11.2079 -11.1833 -11.1829  -7.8994  -7.7851  -7.7230  -7.6034
    -7.3824  -7.2263  -6.9686  -6.5482  -6.5142  -6.5027  -6.2030  -4.5565
    -4.4418  -4.4272  -4.4265  -4.1317  -4.0383  -4.0188  -3.8445  -3.5790
    -3.5717  -3.1781  -2.9257  -2.9037  -2.8792  -2.8686  -2.7181  -2.7053
    -2.7011  -2.6834  -2.3398  -2.3390  -2.2836  -2.1694  -2.0730  -1.6129
    -1.4609  -1.3619  -1.2159  -1.1474  -1.0544  -0.8670  -0.4880   0.4564
     0.4595   0.4633   0.7301   0.7305   0.7794   1.2118   1.3574   1.4394
     1.4598   1.6322   1.6983   1.7329   1.8565   1.9015   1.9879   2.3100
     2.5646   2.6496   2.8601   2.9115   2.9624   3.0436   3.1156   3.1400
     3.1666   3.2600

          k = 0.0500 0.4330 0.0000 (186662 PWs)   bands (ev):

   -37.2470 -37.2470 -37.2469 -37.2468 -37.2468 -37.2465 -37.2464 -37.2464
   -37.0570 -37.0570 -37.0569 -37.0569 -37.0551 -37.0551 -37.0551 -37.0550
   -36.9964 -36.9962 -36.9961 -36.9961 -36.7229 -36.7227 -36.7225 -36.7225
   -36.7114 -36.7113 -36.7112 -36.7111 -36.7110 -36.7110 -36.7110 -36.7110
   -36.6895 -36.6895 -36.6893 -36.6892 -36.6892 -36.6887 -36.6886 -36.6886
   -36.6013 -36.6013 -36.6011 -36.6011 -36.6009 -36.6005 -36.6004 -36.6004
   -36.5602 -36.5601 -36.5601 -36.5599 -36.5599 -36.5599 -36.5598 -36.5598
   -36.5564 -36.5562 -36.5560 -36.5560 -16.6574 -16.6567 -16.6551 -16.6541
   -16.6518 -16.6463 -16.6452 -16.6451 -16.5272 -16.5260 -16.5254 -16.5253
   -16.5170 -16.5162 -16.5148 -16.5124 -16.5122 -16.5121 -16.5114 -16.5107
   -16.3287 -16.3282 -16.3259 -16.3198 -16.2866 -16.2864 -16.2845 -16.2815
   -16.2682 -16.2606 -16.2580 -16.2576 -16.2260 -16.2259 -16.2257 -16.2221
   -16.2178 -16.2166 -16.2162 -16.2157 -16.0496 -16.0482 -16.0417 -16.0255
   -15.9847 -15.9820 -15.9749 -15.9732 -15.9730 -15.9715 -15.9663 -15.9659
   -15.9290 -15.9289 -15.9276 -15.9225 -15.9211 -15.9204 -15.9185 -15.9183
   -13.2726 -12.7709 -12.6075 -12.2859 -12.1992 -12.1065 -11.8672 -11.7788
   -11.3921 -11.2457 -11.1796 -11.1779  -7.7896  -7.7420  -7.6652  -7.5460
    -7.2977  -7.1143  -6.7613  -6.5414  -6.4990  -6.2720  -6.1792  -4.8788
    -4.6887  -4.4768  -4.4461  -4.4133  -4.1973  -4.0888  -4.0655  -4.0145
    -3.4247  -3.1001  -3.0376  -2.9098  -2.8230  -2.7946  -2.7632  -2.6135
    -2.6065  -2.5808  -2.4141  -2.3816  -2.3471  -2.1674  -2.1344  -1.6835
    -1.4917  -1.4148  -1.3164  -1.1696  -0.7965  -0.7119  -0.5673   0.0672
     0.3821   0.4060   0.5691   0.8361   1.0056   1.0513   1.6643   1.7641
     1.7898   1.8093   1.9620   1.9773   2.1342   2.1802   2.1871   2.3781
     2.5124   2.5679   2.7556   2.8318   3.0654   3.1963   3.2333   3.3575
     3.3767   3.5814

          k = 0.0500 0.5485 0.0000 (186672 PWs)   bands (ev):

   -37.2470 -37.2470 -37.2468 -37.2468 -37.2467 -37.2466 -37.2464 -37.2464
   -37.0570 -37.0570 -37.0569 -37.0569 -37.0551 -37.0551 -37.0551 -37.0550
   -36.9963 -36.9963 -36.9961 -36.9961 -36.7228 -36.7227 -36.7225 -36.7225
   -36.7113 -36.7113 -36.7112 -36.7111 -36.7111 -36.7110 -36.7110 -36.7110
   -36.6895 -36.6895 -36.6893 -36.6892 -36.6890 -36.6889 -36.6887 -36.6887
   -36.6013 -36.6013 -36.6011 -36.6010 -36.6008 -36.6007 -36.6004 -36.6004
   -36.5602 -36.5601 -36.5600 -36.5600 -36.5599 -36.5599 -36.5598 -36.5598
   -36.5563 -36.5563 -36.5560 -36.5560 -16.6571 -16.6570 -16.6543 -16.6532
   -16.6496 -16.6485 -16.6460 -16.6459 -16.5267 -16.5264 -16.5254 -16.5253
   -16.5166 -16.5163 -16.5138 -16.5130 -16.5126 -16.5122 -16.5111 -16.5110
   -16.3279 -16.3273 -16.3230 -16.3217 -16.2871 -16.2868 -16.2838 -16.2832
   -16.2650 -16.2635 -16.2584 -16.2580 -16.2253 -16.2249 -16.2244 -16.2237
   -16.2175 -16.2171 -16.2170 -16.2167 -16.0489 -16.0473 -16.0355 -16.0322
   -15.9808 -15.9787 -15.9782 -15.9764 -15.9741 -15.9722 -15.9663 -15.9659
   -15.9284 -15.9284 -15.9257 -15.9246 -15.9218 -15.9208 -15.9185 -15.9184
   -13.0921 -12.9904 -12.4551 -12.3716 -12.2987 -12.1082 -11.8706 -11.7732
   -11.3307 -11.3002 -11.1777 -11.1754  -7.7178  -7.6672  -7.6350  -7.6108
    -7.2494  -7.0547  -6.5356  -6.5340  -6.4982  -6.4265  -5.6827  -5.4127
    -4.7430  -4.5754  -4.4980  -4.3854  -4.3287  -4.3032  -4.1631  -4.0720
    -3.2403  -3.1396  -3.0736  -3.0689  -2.7396  -2.7159  -2.6207  -2.5750
    -2.5486  -2.5340  -2.4781  -2.4121  -2.4040  -2.3140  -1.8920  -1.7863
    -1.7466  -1.5800  -1.1946  -1.0504  -0.7044  -0.6581  -0.2377  -0.1647
     0.0032   0.1697   0.7221   0.8155   0.9609   1.0134   1.9169   1.9278
     1.9300   1.9833   2.0242   2.0412   2.0945   2.1291   2.3748   2.4523
     2.5581   2.5884   2.9983   3.2579   3.2822   3.3027   3.4126   3.4595
     3.5659   3.6351

          k = 0.0500-0.4907 0.0000 (186681 PWs)   bands (ev):

   -37.2470 -37.2470 -37.2468 -37.2468 -37.2467 -37.2465 -37.2464 -37.2464
   -37.0570 -37.0570 -37.0569 -37.0569 -37.0551 -37.0551 -37.0551 -37.0550
   -36.9964 -36.9963 -36.9961 -36.9961 -36.7228 -36.7227 -36.7225 -36.7225
   -36.7113 -36.7113 -36.7112 -36.7111 -36.7111 -36.7110 -36.7110 -36.7110
   -36.6895 -36.6895 -36.6893 -36.6892 -36.6891 -36.6888 -36.6887 -36.6887
   -36.6013 -36.6013 -36.6011 -36.6010 -36.6009 -36.6006 -36.6004 -36.6004
   -36.5602 -36.5601 -36.5600 -36.5600 -36.5599 -36.5599 -36.5598 -36.5598
   -36.5564 -36.5562 -36.5560 -36.5560 -16.6572 -16.6568 -16.6545 -16.6536
   -16.6507 -16.6474 -16.6457 -16.6456 -16.5269 -16.5262 -16.5254 -16.5253
   -16.5166 -16.5163 -16.5141 -16.5129 -16.5128 -16.5119 -16.5114 -16.5106
   -16.3281 -16.3276 -16.3244 -16.3206 -16.2869 -16.2866 -16.2842 -16.2824
   -16.2666 -16.2620 -16.2582 -16.2579 -16.2255 -16.2252 -16.2252 -16.2229
   -16.2175 -16.2172 -16.2167 -16.2162 -16.0492 -16.0476 -16.0387 -16.0288
   -15.9827 -15.9802 -15.9768 -15.9746 -15.9738 -15.9720 -15.9663 -15.9659
   -15.9286 -15.9286 -15.9266 -15.9236 -15.9216 -15.9206 -15.9185 -15.9184
   -13.1865 -12.8828 -12.5342 -12.2944 -12.2856 -12.1076 -11.8694 -11.7751
   -11.3617 -11.2714 -11.1783 -11.1763  -7.7285  -7.7263  -7.6455  -7.5669
    -7.2664  -7.0756  -6.6498  -6.5378  -6.4983  -6.3376  -5.9417  -5.1411
    -4.7271  -4.5167  -4.4932  -4.4304  -4.2762  -4.1795  -4.1423  -4.0704
    -3.3365  -3.0801  -3.0722  -3.0176  -2.7729  -2.7465  -2.6974  -2.5871
    -2.5683  -2.4962  -2.4527  -2.4417  -2.4007  -2.2336  -2.0217  -1.7486
    -1.5871  -1.5466  -1.2434  -1.0971  -0.7505  -0.6116  -0.4795  -0.0803
     0.2276   0.2470   0.6394   0.8987   0.9170   1.0424   1.8295   1.8399
     1.8520   1.9168   2.0591   2.0765   2.1010   2.1127   2.3625   2.4704
     2.5180   2.5902   2.7871   3.0176   3.1732   3.2500   3.3611   3.4638
     3.5232   3.7051

          k = 0.0500-0.3753 0.0000 (186663 PWs)   bands (ev):

   -37.2470 -37.2470 -37.2469 -37.2468 -37.2468 -37.2464 -37.2464 -37.2464
   -37.0571 -37.0570 -37.0569 -37.0569 -37.0551 -37.0551 -37.0551 -37.0550
   -36.9964 -36.9962 -36.9961 -36.9961 -36.7229 -36.7226 -36.7225 -36.7225
   -36.7114 -36.7113 -36.7113 -36.7111 -36.7111 -36.7110 -36.7110 -36.7110
   -36.6895 -36.6895 -36.6894 -36.6893 -36.6892 -36.6887 -36.6886 -36.6886
   -36.6013 -36.6013 -36.6012 -36.6011 -36.6010 -36.6004 -36.6004 -36.6003
   -36.5602 -36.5601 -36.5601 -36.5599 -36.5599 -36.5599 -36.5598 -36.5598
   -36.5564 -36.5561 -36.5560 -36.5560 -16.6575 -16.6566 -16.6556 -16.6548
   -16.6528 -16.6453 -16.6446 -16.6445 -16.5274 -16.5258 -16.5254 -16.5253
   -16.5170 -16.5163 -16.5151 -16.5128 -16.5121 -16.5117 -16.5115 -16.5101
   -16.3294 -16.3290 -16.3275 -16.3191 -16.2863 -16.2860 -16.2846 -16.2804
   -16.2697 -16.2594 -16.2577 -16.2574 -16.2266 -16.2265 -16.2263 -16.2214
   -16.2181 -16.2159 -16.2156 -16.2151 -16.0503 -16.0489 -16.0445 -16.0222
   -15.9865 -15.9840 -15.9732 -15.9724 -15.9714 -15.9709 -15.9664 -15.9660
   -15.9294 -15.9293 -15.9284 -15.9215 -15.9206 -15.9199 -15.9185 -15.9182
   -13.3496 -12.6737 -12.6568 -12.2735 -12.1151 -12.1057 -11.8640 -11.7842
   -11.4209 -11.2243 -11.1813 -11.1803  -7.8473  -7.7625  -7.6921  -7.5580
    -7.3381  -7.1665  -6.8627  -6.5453  -6.5003  -6.3787  -6.2285  -4.6403
    -4.6285  -4.4524  -4.4417  -4.2791  -4.1192  -4.0530  -3.9848  -3.8125
    -3.5035  -3.1353  -2.9741  -2.8752  -2.8501  -2.8224  -2.7966  -2.6538
    -2.6533  -2.6530  -2.3746  -2.3598  -2.2549  -2.2243  -2.1147  -1.6209
    -1.4425  -1.3755  -1.2355  -1.2298  -0.9425  -0.8293  -0.5252   0.2525
     0.4919   0.5108   0.5528   0.7789   0.9347   1.1814   1.4523   1.6530
     1.6942   1.7372   1.7529   1.8713   2.0098   2.0809   2.0949   2.2523
     2.5468   2.5686   2.8383   2.8687   2.9570   3.1139   3.1453   3.2343
     3.2522   3.4111

          k = 0.0500-0.2598 0.0000 (186566 PWs)   bands (ev):

   -37.2470 -37.2470 -37.2469 -37.2469 -37.2469 -37.2463 -37.2463 -37.2463
   -37.0571 -37.0570 -37.0569 -37.0569 -37.0552 -37.0551 -37.0550 -37.0550
   -36.9965 -36.9962 -36.9961 -36.9961 -36.7230 -36.7225 -36.7225 -36.7225
   -36.7114 -36.7113 -36.7113 -36.7111 -36.7110 -36.7110 -36.7110 -36.7110
   -36.6895 -36.6895 -36.6894 -36.6894 -36.6894 -36.6885 -36.6885 -36.6885
   -36.6013 -36.6013 -36.6013 -36.6012 -36.6011 -36.6003 -36.6003 -36.6003
   -36.5602 -36.5601 -36.5601 -36.5599 -36.5599 -36.5599 -36.5598 -36.5598
   -36.5565 -36.5561 -36.5560 -36.5560 -16.6577 -16.6567 -16.6564 -16.6563
   -16.6545 -16.6436 -16.6434 -16.6432 -16.5279 -16.5255 -16.5255 -16.5253
   -16.5175 -16.5165 -16.5159 -16.5126 -16.5119 -16.5115 -16.5111 -16.5096
   -16.3311 -16.3309 -16.3303 -16.3185 -16.2855 -16.2852 -16.2846 -16.2781
   -16.2723 -16.2575 -16.2568 -16.2567 -16.2277 -16.2276 -16.2275 -16.2201
   -16.2184 -16.2144 -16.2143 -16.2140 -16.0517 -16.0507 -16.0490 -16.0161
   -15.9896 -15.9877 -15.9704 -15.9703 -15.9696 -15.9690 -15.9665 -15.9660
   -15.9302 -15.9302 -15.9298 -15.9197 -15.9195 -15.9190 -15.9184 -15.9180
   -13.4734 -12.7817 -12.4333 -12.2395 -12.1068 -11.9667 -11.8557 -11.7986
   -11.4702 -11.1972 -11.1857 -11.1856  -7.9446  -7.8069  -7.7553  -7.6689
    -7.4248  -7.2888  -7.0964  -6.5725  -6.5493  -6.5058  -6.1902  -4.4866
    -4.4083  -4.4074  -4.2941  -4.0273  -3.9484  -3.9091  -3.6888  -3.6288
    -3.3218  -3.2172  -2.9687  -2.9531  -2.9326  -2.7851  -2.7567  -2.7562
    -2.7243  -2.5683  -2.3207  -2.3122  -2.3099  -2.1001  -2.0335  -1.6591
    -1.5307  -1.3334  -1.2809  -1.1429  -0.8986  -0.8813  -0.4550   0.3162
     0.4253   0.5685   0.6669   0.6906   0.8282   1.0138   1.1887   1.2355
     1.4260   1.5263   1.5792   1.7354   1.7669   1.8198   1.8881   2.3496
     2.6392   2.7120   2.7826   2.9004   2.9861   3.0098   3.0841   3.1286
     3.1797   3.2180

          k = 0.0500-0.1443 0.0000 (186480 PWs)   bands (ev):

   -37.2470 -37.2470 -37.2470 -37.2470 -37.2470 -37.2463 -37.2463 -37.2463
   -37.0571 -37.0570 -37.0569 -37.0568 -37.0552 -37.0551 -37.0550 -37.0550
   -36.9965 -36.9961 -36.9961 -36.9961 -36.7230 -36.7225 -36.7225 -36.7225
   -36.7114 -36.7113 -36.7113 -36.7110 -36.7110 -36.7110 -36.7110 -36.7109
   -36.6895 -36.6895 -36.6895 -36.6895 -36.6894 -36.6884 -36.6884 -36.6884
   -36.6013 -36.6013 -36.6013 -36.6013 -36.6012 -36.6002 -36.6002 -36.6002
   -36.5602 -36.5602 -36.5601 -36.5599 -36.5599 -36.5599 -36.5598 -36.5598
   -36.5566 -36.5560 -36.5560 -36.5560 -16.6579 -16.6575 -16.6574 -16.6563
   -16.6556 -16.6424 -16.6424 -16.6423 -16.5282 -16.5254 -16.5254 -16.5253
   -16.5178 -16.5167 -16.5165 -16.5123 -16.5120 -16.5111 -16.5109 -16.5092
   -16.3325 -16.3325 -16.3323 -16.3183 -16.2848 -16.2846 -16.2845 -16.2763
   -16.2742 -16.2562 -16.2561 -16.2560 -16.2285 -16.2285 -16.2284 -16.2192
   -16.2186 -16.2133 -16.2132 -16.2132 -16.0529 -16.0523 -16.0521 -16.0112
   -15.9918 -15.9908 -15.9686 -15.9684 -15.9683 -15.9673 -15.9667 -15.9662
   -15.9309 -15.9308 -15.9307 -15.9187 -15.9185 -15.9183 -15.9183 -15.9179
   -13.5540 -12.8526 -12.2440 -12.1984 -12.1172 -11.8671 -11.8461 -11.8147
   -11.5040 -11.1905 -11.1903 -11.1898  -8.0100  -7.8399  -7.8116  -7.7932
    -7.4863  -7.4029  -7.3554  -6.5598  -6.5447  -6.5150  -6.1846  -4.3997
    -4.3838  -4.3827  -4.1360  -3.8763  -3.7809  -3.7084  -3.5627  -3.3858
    -3.2598  -3.0318  -3.0236  -3.0148  -2.9147  -2.8848  -2.8622  -2.7933
    -2.4676  -2.2993  -2.2937  -2.2806  -2.2624  -2.0365  -1.9330  -1.7487
    -1.6709  -1.6268  -1.0894  -0.9984  -0.9441  -0.5940  -0.4072  -0.1227
     0.0903   0.3746   0.4836   0.6376   0.6512   0.7338   0.8662   1.2072
     1.3775   1.5031   1.5519   1.6771   1.7073   1.7242   2.0266   2.3695
     2.6473   2.7327   2.7708   2.8259   2.8513   2.9879   3.1362   3.2866
     3.3003   3.3194

          k = 0.0500-0.0289 0.0000 (186385 PWs)   bands (ev):

   -37.2470 -37.2470 -37.2470 -37.2470 -37.2470 -37.2463 -37.2463 -37.2462
   -37.0571 -37.0570 -37.0569 -37.0568 -37.0552 -37.0551 -37.0550 -37.0550
   -36.9965 -36.9961 -36.9961 -36.9961 -36.7230 -36.7225 -36.7225 -36.7225
   -36.7114 -36.7113 -36.7113 -36.7110 -36.7110 -36.7110 -36.7110 -36.7109
   -36.6895 -36.6895 -36.6895 -36.6895 -36.6895 -36.6884 -36.6884 -36.6884
   -36.6013 -36.6013 -36.6013 -36.6013 -36.6013 -36.6002 -36.6002 -36.6002
   -36.5602 -36.5602 -36.5602 -36.5599 -36.5599 -36.5599 -36.5598 -36.5597
   -36.5566 -36.5560 -36.5560 -36.5560 -16.6580 -16.6580 -16.6579 -16.6562
   -16.6562 -16.6420 -16.6419 -16.6419 -16.5283 -16.5254 -16.5253 -16.5253
   -16.5180 -16.5168 -16.5168 -16.5121 -16.5121 -16.5110 -16.5108 -16.5091
   -16.3333 -16.3332 -16.3332 -16.3183 -16.2844 -16.2844 -16.2844 -16.2754
   -16.2750 -16.2557 -16.2557 -16.2557 -16.2289 -16.2289 -16.2288 -16.2187
   -16.2187 -16.2128 -16.2127 -16.2127 -16.0534 -16.0534 -16.0533 -16.0087
   -15.9928 -15.9926 -15.9676 -15.9676 -15.9676 -15.9668 -15.9665 -15.9665
   -15.9312 -15.9311 -15.9311 -15.9182 -15.9182 -15.9180 -15.9180 -15.9177
   -13.5889 -12.8835 -12.1583 -12.1413 -12.1413 -11.8353 -11.8292 -11.8292
   -11.5191 -11.1924 -11.1924 -11.1922  -8.0388  -7.8498  -7.8498  -7.8444
    -7.4962  -7.4962  -7.4788  -6.5336  -6.5271  -6.5271  -6.1864  -4.3761
    -4.3761  -4.3754  -4.0885  -3.7423  -3.7423  -3.7172  -3.2634  -3.2634
    -3.2022  -3.0552  -3.0552  -3.0419  -3.0224  -2.9828  -2.9828  -2.4403
    -2.3750  -2.2785  -2.2751  -2.2751  -2.0743  -1.9242  -1.8694  -1.7719
    -1.7719  -1.7560  -0.9641  -0.9641  -0.9432  -0.5041  -0.4042  -0.3821
    -0.2493   0.3161   0.3542   0.3542   0.5813   0.6150   0.6150   1.4698
     1.4698   1.5075   1.5181   1.6476   1.6476   1.6532   2.2872   2.3570
     2.5747   2.7026   2.7157   2.7157   2.8052   3.1474   3.2009   3.2626
     3.3028   3.3448

          k = 0.1500 0.1443 0.0000 (186558 PWs)   bands (ev):

   -37.2470 -37.2470 -37.2470 -37.2470 -37.2469 -37.2463 -37.2463 -37.2463
   -37.0571 -37.0570 -37.0569 -37.0568 -37.0552 -37.0551 -37.0550 -37.0550
   -36.9965 -36.9962 -36.9961 -36.9961 -36.7230 -36.7225 -36.7225 -36.7225
   -36.7114 -36.7113 -36.7113 -36.7110 -36.7110 -36.7110 -36.7110 -36.7110
   -36.6895 -36.6895 -36.6895 -36.6894 -36.6894 -36.6885 -36.6885 -36.6885
   -36.6013 -36.6013 -36.6013 -36.6013 -36.6012 -36.6002 -36.6002 -36.6002
   -36.5602 -36.5601 -36.5601 -36.5599 -36.5599 -36.5599 -36.5598 -36.5598
   -36.5565 -36.5560 -36.5560 -36.5560 -16.6578 -16.6573 -16.6567 -16.6564
   -16.6551 -16.6429 -16.6428 -16.6428 -16.5280 -16.5254 -16.5254 -16.5254
   -16.5178 -16.5165 -16.5163 -16.5121 -16.5119 -16.5112 -16.5111 -16.5096
   -16.3319 -16.3317 -16.3314 -16.3184 -16.2851 -16.2849 -16.2845 -16.2771
   -16.2734 -16.2568 -16.2565 -16.2563 -16.2282 -16.2281 -16.2280 -16.2196
   -16.2185 -16.2138 -16.2137 -16.2135 -16.0523 -16.0516 -16.0507 -16.0135
   -15.9909 -15.9893 -15.9694 -15.9692 -15.9689 -15.9681 -15.9666 -15.9661
   -15.9307 -15.9305 -15.9303 -15.9190 -15.9190 -15.9187 -15.9183 -15.9180
   -13.5193 -12.8220 -12.3316 -12.2194 -12.1104 -11.9093 -11.8511 -11.8066
   -11.4893 -11.1918 -11.1882 -11.1878  -7.9817  -7.8259  -7.7854  -7.7367
    -7.4608  -7.3489  -7.2331  -6.5773  -6.5480  -6.5101  -6.1853  -4.4331
    -4.3929  -4.3928  -4.1957  -3.9552  -3.8582  -3.7385  -3.6744  -3.5322
    -3.2453  -3.0529  -3.0055  -2.9928  -2.9782  -2.8537  -2.8165  -2.8088
    -2.5734  -2.4348  -2.3111  -2.3056  -2.2925  -2.0589  -1.9846  -1.7104
    -1.6053  -1.4951  -1.1808  -1.0654  -0.9243  -0.7232  -0.4290   0.1087
     0.3298   0.3959   0.6601   0.6654   0.8054   0.8923   0.9697   1.2032
     1.2425   1.5360   1.5770   1.7131   1.7561   1.7973   1.8498   2.3675
     2.6914   2.7355   2.7842   2.8356   2.9094   2.9718   3.0934   3.1930
     3.2492   3.3169

          k = 0.1500 0.2598 0.0000 (186586 PWs)   bands (ev):

   -37.2470 -37.2470 -37.2470 -37.2469 -37.2469 -37.2464 -37.2464 -37.2463
   -37.0571 -37.0570 -37.0569 -37.0568 -37.0551 -37.0551 -37.0551 -37.0550
   -36.9965 -36.9962 -36.9961 -36.9961 -36.7230 -36.7225 -36.7225 -36.7224
   -36.7114 -36.7113 -36.7113 -36.7110 -36.7110 -36.7110 -36.7110 -36.7110
   -36.6895 -36.6895 -36.6895 -36.6893 -36.6893 -36.6886 -36.6886 -36.6885
   -36.6013 -36.6013 -36.6013 -36.6012 -36.6011 -36.6003 -36.6003 -36.6003
   -36.5602 -36.5601 -36.5601 -36.5599 -36.5599 -36.5599 -36.5598 -36.5598
   -36.5565 -36.5560 -36.5560 -36.5560 -16.6572 -16.6572 -16.6564 -16.6554
   -16.6540 -16.6439 -16.6439 -16.6436 -16.5277 -16.5255 -16.5255 -16.5253
   -16.5176 -16.5161 -16.5161 -16.5119 -16.5119 -16.5117 -16.5112 -16.5102
   -16.3307 -16.3298 -16.3298 -16.3186 -16.2858 -16.2850 -16.2850 -16.2788
   -16.2716 -16.2576 -16.2576 -16.2568 -16.2274 -16.2274 -16.2270 -16.2204
   -16.2183 -16.2150 -16.2144 -16.2144 -16.0517 -16.0487 -16.0487 -16.0178
   -15.9891 -15.9862 -15.9716 -15.9716 -15.9694 -15.9679 -15.9679 -15.9660
   -15.9300 -15.9296 -15.9296 -15.9202 -15.9200 -15.9188 -15.9187 -15.9181
   -13.4393 -12.7518 -12.4073 -12.4073 -12.0353 -11.9482 -11.9482 -11.7720
   -11.4562 -11.1932 -11.1932 -11.1863  -7.9173  -7.8159  -7.6652  -7.6652
    -7.4670  -7.0941  -7.0941  -6.5664  -6.5664  -6.4792  -6.1966  -4.5948
    -4.3971  -4.3971  -4.3761  -4.1492  -4.0125  -3.8011  -3.8011  -3.4712
    -3.4533  -3.4533  -2.9504  -2.9047  -2.9047  -2.8695  -2.7316  -2.7316
    -2.7311  -2.5690  -2.3183  -2.3109  -2.3109  -2.2328  -2.0352  -1.6896
    -1.3979  -1.3195  -1.3195  -1.0095  -1.0095  -0.9630  -0.5020   0.4281
     0.4747   0.7024   0.7024   0.7348   0.9545   0.9545   1.3239   1.3239
     1.4413   1.4632   1.6694   1.6959   1.7841   1.9219   1.9219   2.3134
     2.6109   2.7856   2.7856   2.7991   2.9324   3.0093   3.0777   3.1259
     3.1259   3.2551

          k = 0.1500 0.3753 0.0000 (186604 PWs)   bands (ev):

   -37.2470 -37.2470 -37.2469 -37.2468 -37.2468 -37.2464 -37.2464 -37.2464
   -37.0571 -37.0570 -37.0569 -37.0569 -37.0551 -37.0551 -37.0551 -37.0550
   -36.9964 -36.9962 -36.9962 -36.9961 -36.7229 -36.7226 -36.7225 -36.7224
   -36.7114 -36.7113 -36.7113 -36.7111 -36.7110 -36.7110 -36.7110 -36.7110
   -36.6895 -36.6895 -36.6894 -36.6892 -36.6892 -36.6887 -36.6886 -36.6886
   -36.6013 -36.6013 -36.6012 -36.6010 -36.6010 -36.6004 -36.6004 -36.6004
   -36.5602 -36.5601 -36.5601 -36.5599 -36.5599 -36.5599 -36.5598 -36.5598
   -36.5564 -36.5561 -36.5561 -36.5559 -16.6571 -16.6565 -16.6563 -16.6538
   -16.6525 -16.6455 -16.6451 -16.6449 -16.5273 -16.5258 -16.5256 -16.5252
   -16.5172 -16.5158 -16.5154 -16.5123 -16.5119 -16.5116 -16.5116 -16.5109
   -16.3293 -16.3279 -16.3272 -16.3193 -16.2866 -16.2857 -16.2850 -16.2810
   -16.2690 -16.2594 -16.2585 -16.2573 -16.2264 -16.2264 -16.2257 -16.2216
   -16.2181 -16.2166 -16.2156 -16.2154 -16.0507 -16.0466 -16.0444 -16.0234
   -15.9866 -15.9824 -15.9746 -15.9740 -15.9700 -15.9700 -15.9677 -15.9662
   -15.9291 -15.9288 -15.9284 -15.9219 -15.9214 -15.9194 -15.9188 -15.9183
   -13.3164 -12.6450 -12.6290 -12.4641 -12.0938 -11.9815 -11.9789 -11.7439
   -11.4082 -11.2184 -11.1946 -11.1843  -7.8219  -7.7935  -7.5993  -7.5536
    -7.4350  -6.9686  -6.8614  -6.5239  -6.4587  -6.3933  -6.2432  -4.7904
    -4.7274  -4.4820  -4.4184  -4.3772  -4.0181  -3.9965  -3.8903  -3.7232
    -3.6801  -3.3278  -3.0545  -2.8682  -2.8264  -2.8087  -2.7943  -2.6466
    -2.6459  -2.6241  -2.4677  -2.3772  -2.2953  -2.2163  -2.0844  -1.7569
    -1.4457  -1.2780  -1.2297  -1.0375  -0.9871  -0.8777  -0.5931  -0.0222
     0.6147   0.7691   0.8370   1.0542   1.1064   1.1809   1.2779   1.4498
     1.5263   1.6914   1.8136   1.9051   2.0770   2.1043   2.1967   2.3551
     2.5174   2.6247   2.7498   2.8661   2.8776   3.0109   3.1565   3.1640
     3.2274   3.6673

          k = 0.1500 0.4907 0.0000 (186601 PWs)   bands (ev):

   -37.2470 -37.2470 -37.2469 -37.2467 -37.2467 -37.2465 -37.2465 -37.2464
   -37.0570 -37.0570 -37.0569 -37.0569 -37.0551 -37.0551 -37.0551 -37.0550
   -36.9964 -36.9963 -36.9962 -36.9961 -36.7228 -36.7227 -36.7226 -36.7224
   -36.7113 -36.7113 -36.7112 -36.7111 -36.7111 -36.7110 -36.7110 -36.7110
   -36.6895 -36.6895 -36.6894 -36.6891 -36.6891 -36.6888 -36.6887 -36.6887
   -36.6013 -36.6013 -36.6012 -36.6009 -36.6008 -36.6006 -36.6005 -36.6005
   -36.5602 -36.5601 -36.5601 -36.5599 -36.5599 -36.5599 -36.5599 -36.5598
   -36.5563 -36.5562 -36.5561 -36.5559 -16.6569 -16.6567 -16.6554 -16.6523
   -16.6506 -16.6474 -16.6462 -16.6461 -16.5268 -16.5262 -16.5256 -16.5252
   -16.5167 -16.5158 -16.5145 -16.5129 -16.5123 -16.5118 -16.5113 -16.5111
   -16.3282 -16.3265 -16.3243 -16.3207 -16.2872 -16.2863 -16.2847 -16.2829
   -16.2661 -16.2618 -16.2591 -16.2578 -16.2255 -16.2251 -16.2244 -16.2230
   -16.2181 -16.2176 -16.2166 -16.2164 -16.0500 -16.0450 -16.0390 -16.0297
   -15.9834 -15.9784 -15.9780 -15.9758 -15.9729 -15.9704 -15.9676 -15.9663
   -15.9282 -15.9281 -15.9267 -15.9238 -15.9226 -15.9200 -15.9187 -15.9186
   -13.1544 -12.8531 -12.5070 -12.4971 -12.2616 -11.9974 -11.9522 -11.7257
   -11.3507 -11.2634 -11.1956 -11.1829  -7.7733  -7.7063  -7.5575  -7.5542
    -7.3967  -6.8863  -6.6613  -6.4751  -6.4498  -6.3587  -5.9777  -5.2098
    -4.9107  -4.7158  -4.4115  -4.3178  -4.2052  -4.1550  -3.9985  -3.9581
    -3.4950  -3.1821  -3.1763  -3.0111  -2.8200  -2.7786  -2.7453  -2.6770
    -2.5837  -2.5780  -2.4424  -2.4322  -2.2806  -2.1830  -2.0222  -1.9253
    -1.6076  -1.3343  -1.2966  -0.8755  -0.8563  -0.6957  -0.4590  -0.3806
     0.2688   0.5843   0.8724   1.0605   1.1793   1.2893   1.6124   1.7153
     1.7572   1.9546   2.0241   2.0464   2.0861   2.1153   2.2116   2.4932
     2.5834   2.5908   2.6867   3.0805   3.2183   3.2404   3.2696   3.3323
     3.4338   3.6846

          k = 0.1500 0.6062 0.0000 (186657 PWs)   bands (ev):

   -37.2470 -37.2470 -37.2469 -37.2467 -37.2467 -37.2466 -37.2465 -37.2465
   -37.0570 -37.0570 -37.0569 -37.0569 -37.0551 -37.0551 -37.0551 -37.0550
   -36.9963 -36.9963 -36.9962 -36.9961 -36.7228 -36.7227 -36.7226 -36.7224
   -36.7113 -36.7113 -36.7112 -36.7112 -36.7111 -36.7110 -36.7110 -36.7110
   -36.6895 -36.6895 -36.6893 -36.6891 -36.6890 -36.6889 -36.6887 -36.6887
   -36.6013 -36.6013 -36.6012 -36.6009 -36.6008 -36.6007 -36.6005 -36.6005
   -36.5601 -36.5601 -36.5600 -36.5600 -36.5599 -36.5599 -36.5598 -36.5598
   -36.5563 -36.5562 -36.5561 -36.5559 -16.6568 -16.6567 -16.6552 -16.6519
   -16.6495 -16.6485 -16.6466 -16.6463 -16.5266 -16.5264 -16.5257 -16.5252
   -16.5163 -16.5160 -16.5137 -16.5134 -16.5133 -16.5116 -16.5116 -16.5107
   -16.3280 -16.3262 -16.3229 -16.3217 -16.2873 -16.2864 -16.2843 -16.2837
   -16.2646 -16.2632 -16.2592 -16.2579 -16.2253 -16.2244 -16.2241 -16.2237
   -16.2185 -16.2173 -16.2168 -16.2168 -16.0498 -16.0447 -16.0360 -16.0329
   -15.9816 -15.9799 -15.9765 -15.9762 -15.9746 -15.9706 -15.9676 -15.9663
   -15.9281 -15.9278 -15.9257 -15.9248 -15.9229 -15.9201 -15.9187 -15.9186
   -13.0607 -12.9598 -12.5038 -12.4289 -12.3465 -12.0012 -11.9465 -11.7217
   -11.3206 -11.2911 -11.1958 -11.1825  -7.7683  -7.6475  -7.5941  -7.5488
    -7.3867  -6.8685  -6.5515  -6.4622  -6.4484  -6.4474  -5.7290  -5.4702
    -4.9317  -4.7706  -4.3760  -4.3088  -4.2793  -4.2026  -4.0241  -3.9930
    -3.3856  -3.2733  -3.1192  -3.0693  -2.8036  -2.7559  -2.7482  -2.7336
    -2.5817  -2.5586  -2.4357  -2.3446  -2.2778  -2.2561  -1.9728  -1.8990
    -1.7609  -1.3643  -1.2393  -0.8271  -0.8033  -0.7485  -0.4774  -0.2176
     0.0284   0.5150   0.9362   1.0019   1.2385   1.2811   1.6973   1.7605
     1.8682   1.9978   2.0012   2.0484   2.0853   2.1036   2.3024   2.4721
     2.6108   2.6180   2.7650   3.2078   3.2107   3.2585   3.3481   3.5137
     3.5545   3.7019

          k = 0.1500-0.4330 0.0000 (186606 PWs)   bands (ev):

   -37.2470 -37.2470 -37.2469 -37.2468 -37.2468 -37.2465 -37.2464 -37.2464
   -37.0570 -37.0570 -37.0569 -37.0569 -37.0551 -37.0551 -37.0550 -37.0550
   -36.9964 -36.9962 -36.9962 -36.9961 -36.7229 -36.7226 -36.7226 -36.7224
   -36.7113 -36.7113 -36.7112 -36.7111 -36.7111 -36.7110 -36.7110 -36.7110
   -36.6895 -36.6895 -36.6894 -36.6892 -36.6891 -36.6887 -36.6887 -36.6887
   -36.6013 -36.6013 -36.6012 -36.6010 -36.6009 -36.6005 -36.6004 -36.6004
   -36.5602 -36.5601 -36.5600 -36.5600 -36.5599 -36.5599 -36.5598 -36.5598
   -36.5564 -36.5562 -36.5561 -36.5559 -16.6570 -16.6566 -16.6557 -16.6531
   -16.6515 -16.6465 -16.6457 -16.6456 -16.5271 -16.5259 -16.5257 -16.5252
   -16.5164 -16.5162 -16.5144 -16.5134 -16.5129 -16.5119 -16.5113 -16.5102
   -16.3287 -16.3271 -16.3257 -16.3199 -16.2869 -16.2860 -16.2849 -16.2820
   -16.2676 -16.2605 -16.2588 -16.2576 -16.2259 -16.2258 -16.2251 -16.2222
   -16.2179 -16.2173 -16.2162 -16.2159 -16.0503 -16.0457 -16.0418 -16.0265
   -15.9850 -15.9805 -15.9763 -15.9751 -15.9713 -15.9702 -15.9676 -15.9662
   -15.9285 -15.9285 -15.9275 -15.9229 -15.9221 -15.9197 -15.9188 -15.9184
   -13.2399 -12.7421 -12.5795 -12.4837 -12.1766 -11.9898 -11.9638 -11.7333
   -11.3802 -11.2388 -11.1951 -11.1835  -7.7821  -7.7656  -7.5746  -7.5378
    -7.4141  -6.9205  -6.7654  -6.4976  -6.4530  -6.2906  -6.2048  -4.9583
    -4.8636  -4.6163  -4.4227  -4.3531  -4.0849  -4.0648  -4.0078  -3.8512
    -3.5945  -3.2544  -3.1113  -2.9146  -2.8217  -2.8203  -2.7703  -2.6103
    -2.6068  -2.5782  -2.5398  -2.4105  -2.2867  -2.1285  -2.1261  -1.8473
    -1.4456  -1.3764  -1.2814  -0.9554  -0.9119  -0.6871  -0.6422  -0.2204
     0.4815   0.7042   0.8160   1.1039   1.1154   1.2429   1.5053   1.5274
     1.7184   1.8119   1.8919   2.0178   2.1082   2.1438   2.1465   2.5038
     2.5442   2.5768   2.7018   2.9499   3.0169   3.1072   3.1993   3.2266
     3.3242   3.7663

          k = 0.1500-0.3175 0.0000 (186613 PWs)   bands (ev):

   -37.2470 -37.2470 -37.2469 -37.2469 -37.2468 -37.2464 -37.2464 -37.2464
   -37.0570 -37.0570 -37.0569 -37.0569 -37.0552 -37.0551 -37.0550 -37.0550
   -36.9965 -36.9962 -36.9962 -36.9961 -36.7229 -36.7226 -36.7225 -36.7224
   -36.7114 -36.7113 -36.7113 -36.7111 -36.7111 -36.7110 -36.7110 -36.7110
   -36.6895 -36.6895 -36.6894 -36.6893 -36.6893 -36.6886 -36.6886 -36.6886
   -36.6013 -36.6013 -36.6013 -36.6011 -36.6011 -36.6004 -36.6004 -36.6003
   -36.5602 -36.5601 -36.5601 -36.5599 -36.5599 -36.5599 -36.5598 -36.5598
   -36.5565 -36.5561 -36.5561 -36.5559 -16.6571 -16.6566 -16.6565 -16.6547
   -16.6533 -16.6447 -16.6445 -16.6442 -16.5275 -16.5256 -16.5256 -16.5252
   -16.5169 -16.5163 -16.5154 -16.5131 -16.5122 -16.5121 -16.5109 -16.5097
   -16.3300 -16.3289 -16.3285 -16.3189 -16.2862 -16.2853 -16.2850 -16.2799
   -16.2703 -16.2584 -16.2580 -16.2571 -16.2269 -16.2269 -16.2264 -16.2209
   -16.2183 -16.2157 -16.2150 -16.2149 -16.0512 -16.0476 -16.0468 -16.0205
   -15.9879 -15.9844 -15.9731 -15.9729 -15.9697 -15.9687 -15.9678 -15.9661
   -15.9295 -15.9293 -15.9290 -15.9211 -15.9208 -15.9190 -15.9188 -15.9182
   -13.3830 -12.7027 -12.5163 -12.4384 -12.0166 -12.0054 -11.9648 -11.7570
   -11.4338 -11.2031 -11.1939 -11.1853  -7.8730  -7.8053  -7.6303  -7.6005
    -7.4540  -7.0277  -6.9662  -6.5484  -6.5169  -6.4673  -6.2134  -4.6968
    -4.5303  -4.4074  -4.3916  -4.3223  -4.0237  -3.8975  -3.7493  -3.6891
    -3.5866  -3.3952  -2.9782  -2.9112  -2.8564  -2.8562  -2.6891  -2.6860
    -2.6851  -2.6737  -2.3510  -2.3445  -2.3043  -2.2787  -2.0551  -1.6944
    -1.4640  -1.2390  -1.1440  -1.1161  -1.0570  -0.9661  -0.5444   0.1969
     0.6032   0.7315   0.8708   0.9412   0.9999   1.1135   1.2949   1.3016
     1.3814   1.6648   1.6778   1.8130   1.9982   2.0194   2.0442   2.2663
     2.5429   2.7077   2.7834   2.8279   2.9296   2.9424   3.1264   3.1280
     3.1458   3.4064

          k = 0.1500-0.2021 0.0000 (186584 PWs)   bands (ev):

   -37.2470 -37.2470 -37.2470 -37.2469 -37.2469 -37.2463 -37.2463 -37.2463
   -37.0571 -37.0570 -37.0569 -37.0569 -37.0552 -37.0551 -37.0550 -37.0550
   -36.9965 -36.9962 -36.9961 -36.9961 -36.7230 -36.7225 -36.7225 -36.7225
   -36.7114 -36.7113 -36.7113 -36.7111 -36.7111 -36.7110 -36.7110 -36.7109
   -36.6895 -36.6895 -36.6895 -36.6894 -36.6894 -36.6885 -36.6885 -36.6885
   -36.6013 -36.6013 -36.6013 -36.6012 -36.6012 -36.6003 -36.6003 -36.6002
   -36.5602 -36.5601 -36.5601 -36.5599 -36.5599 -36.5599 -36.5598 -36.5598
   -36.5565 -36.5560 -36.5560 -36.5560 -16.6574 -16.6573 -16.6564 -16.6563
   -16.6547 -16.6434 -16.6433 -16.6431 -16.5279 -16.5256 -16.5254 -16.5252
   -16.5173 -16.5164 -16.5161 -16.5127 -16.5123 -16.5117 -16.5107 -16.5093
   -16.3314 -16.3308 -16.3307 -16.3185 -16.2854 -16.2849 -16.2847 -16.2779
   -16.2725 -16.2571 -16.2570 -16.2565 -16.2278 -16.2278 -16.2276 -16.2199
   -16.2185 -16.2143 -16.2140 -16.2140 -16.0521 -16.0504 -16.0498 -16.0154
   -15.9901 -15.9880 -15.9704 -15.9704 -15.9691 -15.9680 -15.9671 -15.9660
   -15.9303 -15.9301 -15.9301 -15.9196 -15.9196 -15.9187 -15.9184 -15.9179
   -13.4849 -12.7917 -12.3714 -12.3065 -12.0707 -11.9294 -11.8921 -11.7887
   -11.4749 -11.1925 -11.1886 -11.1873  -7.9538  -7.8231  -7.7310  -7.7018
    -7.4699  -7.2290  -7.1640  -6.5762  -6.5669  -6.4935  -6.1884  -4.5007
    -4.3971  -4.3922  -4.2667  -4.0237  -3.9211  -3.8363  -3.7214  -3.4990
    -3.3346  -3.2531  -2.9813  -2.9539  -2.9477  -2.7888  -2.7757  -2.7702
    -2.7292  -2.4890  -2.3161  -2.3132  -2.3011  -2.1248  -2.0180  -1.7050
    -1.4764  -1.4109  -1.2930  -1.0418  -0.9562  -0.8323  -0.4604   0.2936
     0.5223   0.5235   0.6538   0.6807   0.7803   0.9187   1.1857   1.2775
     1.4199   1.4459   1.5760   1.7149   1.7367   1.8308   1.8536   2.3494
     2.6811   2.7634   2.7640   2.8276   2.9851   2.9943   3.0278   3.1515
     3.1712   3.2366

          k = 0.1500-0.0866 0.0000 (186522 PWs)   bands (ev):

   -37.2470 -37.2470 -37.2470 -37.2470 -37.2470 -37.2463 -37.2463 -37.2463
   -37.0571 -37.0570 -37.0569 -37.0568 -37.0552 -37.0551 -37.0550 -37.0550
   -36.9965 -36.9961 -36.9961 -36.9961 -36.7230 -36.7225 -36.7225 -36.7225
   -36.7114 -36.7113 -36.7113 -36.7111 -36.7110 -36.7110 -36.7110 -36.7109
   -36.6895 -36.6895 -36.6895 -36.6895 -36.6894 -36.6885 -36.6884 -36.6884
   -36.6013 -36.6013 -36.6013 -36.6013 -36.6012 -36.6002 -36.6002 -36.6002
   -36.5602 -36.5601 -36.5601 -36.5599 -36.5599 -36.5599 -36.5598 -36.5597
   -36.5566 -36.5560 -36.5560 -36.5560 -16.6578 -16.6574 -16.6574 -16.6563
   -16.6555 -16.6427 -16.6425 -16.6425 -16.5281 -16.5255 -16.5253 -16.5253
   -16.5177 -16.5165 -16.5165 -16.5123 -16.5123 -16.5113 -16.5107 -16.5092
   -16.3323 -16.3323 -16.3320 -16.3183 -16.2848 -16.2848 -16.2845 -16.2766
   -16.2739 -16.2564 -16.2562 -16.2562 -16.2284 -16.2283 -16.2283 -16.2193
   -16.2186 -16.2134 -16.2134 -16.2133 -16.0525 -16.0525 -16.0515 -16.0120
   -15.9915 -15.9903 -15.9687 -15.9687 -15.9685 -15.9680 -15.9663 -15.9663
   -15.9307 -15.9307 -15.9307 -15.9187 -15.9187 -15.9187 -15.9181 -15.9178
   -13.5424 -12.8424 -12.2887 -12.1535 -12.1535 -11.8883 -11.8259 -11.8259
   -11.4990 -11.1911 -11.1891 -11.1891  -8.0005  -7.8221  -7.8221  -7.7680
    -7.4383  -7.4383  -7.2982  -6.5714  -6.5274  -6.5274  -6.1846  -4.3967
    -4.3967  -4.3874  -4.1546  -3.8707  -3.8707  -3.6695  -3.5528  -3.5528
    -3.2100  -3.0189  -3.0189  -2.9968  -2.9105  -2.8914  -2.8465  -2.8465
    -2.4742  -2.3599  -2.3057  -2.2908  -2.2908  -2.0419  -1.9428  -1.6988
    -1.6988  -1.5682  -1.0815  -1.0815  -0.9171  -0.6444  -0.4078  -0.0405
     0.1766   0.3445   0.6111   0.6558   0.6558   0.8749   0.8749   1.2190
     1.2190   1.5616   1.5616   1.7039   1.7039   1.7537   1.9637   2.3724
     2.6644   2.7215   2.8308   2.8308   2.8332   2.9586   3.1752   3.2408
     3.2513   3.3688

          k = 0.1500 0.0289 0.0000 (186480 PWs)   bands (ev):

   -37.2470 -37.2470 -37.2470 -37.2470 -37.2470 -37.2463 -37.2463 -37.2463
   -37.0571 -37.0570 -37.0569 -37.0568 -37.0552 -37.0551 -37.0550 -37.0550
   -36.9965 -36.9961 -36.9961 -36.9961 -36.7230 -36.7225 -36.7225 -36.7225
   -36.7114 -36.7113 -36.7113 -36.7110 -36.7110 -36.7110 -36.7110 -36.7109
   -36.6895 -36.6895 -36.6895 -36.6895 -36.6894 -36.6884 -36.6884 -36.6884
   -36.6013 -36.6013 -36.6013 -36.6013 -36.6012 -36.6002 -36.6002 -36.6002
   -36.5602 -36.5602 -36.5601 -36.5599 -36.5599 -36.5599 -36.5598 -36.5598
   -36.5566 -36.5560 -36.5560 -36.5560 -16.6579 -16.6575 -16.6574 -16.6563
   -16.6556 -16.6424 -16.6424 -16.6423 -16.5282 -16.5254 -16.5254 -16.5253
   -16.5178 -16.5167 -16.5165 -16.5123 -16.5120 -16.5111 -16.5109 -16.5092
   -16.3325 -16.3325 -16.3323 -16.3183 -16.2848 -16.2846 -16.2845 -16.2763
   -16.2742 -16.2562 -16.2561 -16.2560 -16.2285 -16.2285 -16.2284 -16.2192
   -16.2186 -16.2133 -16.2132 -16.2132 -16.0529 -16.0523 -16.0521 -16.0112
   -15.9918 -15.9908 -15.9686 -15.9684 -15.9683 -15.9673 -15.9667 -15.9662
   -15.9309 -15.9308 -15.9307 -15.9187 -15.9185 -15.9183 -15.9183 -15.9179
   -13.5540 -12.8526 -12.2440 -12.1984 -12.1172 -11.8671 -11.8461 -11.8147
   -11.5040 -11.1905 -11.1903 -11.1898  -8.0100  -7.8399  -7.8116  -7.7932
    -7.4863  -7.4029  -7.3554  -6.5598  -6.5447  -6.5150  -6.1846  -4.3997
    -4.3838  -4.3827  -4.1360  -3.8763  -3.7809  -3.7084  -3.5627  -3.3858
    -3.2598  -3.0318  -3.0236  -3.0148  -2.9147  -2.8848  -2.8622  -2.7933
    -2.4676  -2.2993  -2.2937  -2.2806  -2.2624  -2.0365  -1.9330  -1.7487
    -1.6709  -1.6268  -1.0894  -0.9984  -0.9441  -0.5940  -0.4072  -0.1227
     0.0903   0.3746   0.4836   0.6376   0.6512   0.7338   0.8662   1.2072
     1.3775   1.5031   1.5519   1.6771   1.7073   1.7242   2.0266   2.3695
     2.6473   2.7327   2.7708   2.8259   2.8513   2.9879   3.1362   3.2867
     3.3003   3.3194

          k = 0.2500 0.2021 0.0000 (186601 PWs)   bands (ev):

   -37.2470 -37.2470 -37.2469 -37.2469 -37.2469 -37.2464 -37.2463 -37.2463
   -37.0571 -37.0570 -37.0569 -37.0569 -37.0551 -37.0551 -37.0551 -37.0550
   -36.9965 -36.9962 -36.9961 -36.9961 -36.7229 -36.7226 -36.7225 -36.7225
   -36.7114 -36.7113 -36.7113 -36.7111 -36.7110 -36.7110 -36.7110 -36.7110
   -36.6895 -36.6895 -36.6894 -36.6893 -36.6893 -36.6886 -36.6886 -36.6885
   -36.6013 -36.6013 -36.6012 -36.6012 -36.6011 -36.6004 -36.6003 -36.6003
   -36.5602 -36.5601 -36.5601 -36.5599 -36.5599 -36.5599 -36.5598 -36.5598
   -36.5565 -36.5561 -36.5560 -36.5560 -16.6576 -16.6565 -16.6563 -16.6554
   -16.6537 -16.6444 -16.6439 -16.6439 -16.5276 -16.5257 -16.5254 -16.5253
   -16.5174 -16.5163 -16.5156 -16.5123 -16.5117 -16.5117 -16.5115 -16.5101
   -16.3303 -16.3299 -16.3289 -16.3187 -16.2859 -16.2856 -16.2846 -16.2792
   -16.2711 -16.2584 -16.2573 -16.2570 -16.2272 -16.2271 -16.2269 -16.2207
   -16.2183 -16.2152 -16.2149 -16.2145 -16.0510 -16.0498 -16.0469 -16.0190
   -15.9882 -15.9858 -15.9716 -15.9714 -15.9703 -15.9702 -15.9665 -15.9660
   -15.9299 -15.9297 -15.9292 -15.9206 -15.9200 -15.9195 -15.9184 -15.9181
   -13.4167 -12.7321 -12.5431 -12.2579 -12.1054 -12.0365 -11.8602 -11.7908
   -11.4472 -11.2079 -11.1833 -11.1829  -7.8994  -7.7851  -7.7230  -7.6034
    -7.3824  -7.2263  -6.9686  -6.5482  -6.5142  -6.5027  -6.2030  -4.5565
    -4.4418  -4.4272  -4.4265  -4.1317  -4.0383  -4.0188  -3.8445  -3.5790
    -3.5717  -3.1781  -2.9257  -2.9037  -2.8792  -2.8686  -2.7181  -2.7053
    -2.7011  -2.6834  -2.3398  -2.3390  -2.2836  -2.1694  -2.0730  -1.6129
    -1.4609  -1.3619  -1.2159  -1.1474  -1.0544  -0.8670  -0.4880   0.4564
     0.4595   0.4633   0.7301   0.7305   0.7794   1.2118   1.3574   1.4394
     1.4598   1.6322   1.6983   1.7329   1.8565   1.9015   1.9879   2.3100
     2.5646   2.6496   2.8601   2.9115   2.9624   3.0436   3.1156   3.1399
     3.1666   3.2600

          k = 0.2500 0.3175 0.0000 (186604 PWs)   bands (ev):

   -37.2470 -37.2470 -37.2469 -37.2468 -37.2468 -37.2464 -37.2464 -37.2464
   -37.0571 -37.0570 -37.0569 -37.0569 -37.0551 -37.0551 -37.0551 -37.0550
   -36.9964 -36.9962 -36.9962 -36.9961 -36.7229 -36.7226 -36.7225 -36.7224
   -36.7114 -36.7113 -36.7113 -36.7111 -36.7110 -36.7110 -36.7110 -36.7110
   -36.6895 -36.6895 -36.6894 -36.6892 -36.6892 -36.6887 -36.6886 -36.6886
   -36.6013 -36.6013 -36.6012 -36.6010 -36.6010 -36.6004 -36.6004 -36.6004
   -36.5602 -36.5601 -36.5601 -36.5599 -36.5599 -36.5599 -36.5598 -36.5598
   -36.5564 -36.5561 -36.5561 -36.5559 -16.6571 -16.6565 -16.6563 -16.6538
   -16.6525 -16.6455 -16.6451 -16.6449 -16.5273 -16.5258 -16.5256 -16.5252
   -16.5172 -16.5158 -16.5154 -16.5123 -16.5119 -16.5116 -16.5116 -16.5109
   -16.3293 -16.3279 -16.3272 -16.3193 -16.2866 -16.2857 -16.2850 -16.2810
   -16.2690 -16.2594 -16.2585 -16.2573 -16.2264 -16.2264 -16.2257 -16.2216
   -16.2181 -16.2166 -16.2156 -16.2154 -16.0507 -16.0466 -16.0444 -16.0234
   -15.9866 -15.9824 -15.9746 -15.9740 -15.9700 -15.9700 -15.9677 -15.9662
   -15.9291 -15.9288 -15.9284 -15.9219 -15.9214 -15.9194 -15.9188 -15.9183
   -13.3164 -12.6450 -12.6290 -12.4641 -12.0938 -11.9815 -11.9789 -11.7439
   -11.4082 -11.2184 -11.1946 -11.1843  -7.8219  -7.7935  -7.5993  -7.5536
    -7.4350  -6.9686  -6.8614  -6.5239  -6.4587  -6.3933  -6.2432  -4.7904
    -4.7274  -4.4820  -4.4184  -4.3772  -4.0181  -3.9965  -3.8903  -3.7232
    -3.6801  -3.3278  -3.0545  -2.8682  -2.8264  -2.8087  -2.7943  -2.6466
    -2.6459  -2.6241  -2.4677  -2.3772  -2.2953  -2.2163  -2.0844  -1.7569
    -1.4457  -1.2780  -1.2297  -1.0375  -0.9871  -0.8777  -0.5931  -0.0222
     0.6147   0.7691   0.8370   1.0542   1.1064   1.1809   1.2779   1.4498
     1.5263   1.6914   1.8136   1.9051   2.0770   2.1043   2.1967   2.3551
     2.5174   2.6247   2.7498   2.8661   2.8776   3.0110   3.1565   3.1640
     3.2274   3.6673

          k = 0.2500 0.4330 0.0000 (186666 PWs)   bands (ev):

   -37.2470 -37.2470 -37.2469 -37.2467 -37.2467 -37.2465 -37.2465 -37.2464
   -37.0570 -37.0570 -37.0569 -37.0569 -37.0551 -37.0551 -37.0551 -37.0550
   -36.9964 -36.9962 -36.9962 -36.9961 -36.7228 -36.7226 -36.7226 -36.7224
   -36.7113 -36.7113 -36.7113 -36.7111 -36.7111 -36.7110 -36.7110 -36.7110
   -36.6895 -36.6894 -36.6894 -36.6891 -36.6891 -36.6888 -36.6888 -36.6887
   -36.6013 -36.6012 -36.6012 -36.6009 -36.6009 -36.6005 -36.6005 -36.6005
   -36.5602 -36.5601 -36.5601 -36.5599 -36.5599 -36.5599 -36.5598 -36.5598
   -36.5564 -36.5561 -36.5561 -36.5559 -16.6565 -16.6563 -16.6563 -16.6519
   -16.6510 -16.6466 -16.6466 -16.6464 -16.5269 -16.5259 -16.5259 -16.5252
   -16.5168 -16.5152 -16.5152 -16.5130 -16.5118 -16.5117 -16.5114 -16.5114
   -16.3283 -16.3255 -16.3255 -16.3203 -16.2872 -16.2855 -16.2855 -16.2828
   -16.2665 -16.2603 -16.2603 -16.2577 -16.2255 -16.2255 -16.2242 -16.2227
   -16.2183 -16.2178 -16.2164 -16.2164 -16.0503 -16.0422 -16.0422 -16.0287
   -15.9845 -15.9784 -15.9771 -15.9771 -15.9698 -15.9698 -15.9695 -15.9667
   -15.9280 -15.9276 -15.9276 -15.9235 -15.9229 -15.9192 -15.9192 -15.9186
   -13.1755 -12.6859 -12.6859 -12.5246 -12.1331 -12.1331 -11.8823 -11.7213
   -11.3577 -11.2263 -11.2263 -11.1877  -7.7913  -7.7202  -7.5269  -7.5269
    -7.4521  -6.7776  -6.7776  -6.4300  -6.3361  -6.2623  -6.2623  -5.1312
    -4.9698  -4.7606  -4.3783  -4.3783  -4.1600  -3.9708  -3.8308  -3.8308
    -3.5459  -3.5459  -3.2130  -2.9096  -2.8268  -2.8131  -2.8131  -2.8002
    -2.5888  -2.5134  -2.5134  -2.4125  -2.1481  -2.1481  -2.1381  -1.9737
    -1.5434  -1.3351  -1.0802  -1.0802  -0.7285  -0.6758  -0.6758  -0.4551
     0.4063   0.9741   0.9741   1.2213   1.4055   1.4055   1.4772   1.6172
     1.6172   1.6501   1.9327   2.0650   2.0946   2.1407   2.1407   2.4822
     2.4977   2.6611   2.6611   2.8280   3.1581   3.1711   3.1711   3.3337
     3.3765   3.7357

          k = 0.2500 0.5485 0.0000 (186632 PWs)   bands (ev):

   -37.2470 -37.2470 -37.2469 -37.2467 -37.2466 -37.2466 -37.2465 -37.2465
   -37.0570 -37.0570 -37.0569 -37.0569 -37.0551 -37.0551 -37.0551 -37.0550
   -36.9963 -36.9963 -36.9962 -36.9961 -36.7227 -36.7227 -36.7226 -36.7224
   -36.7113 -36.7113 -36.7112 -36.7111 -36.7111 -36.7110 -36.7110 -36.7110
   -36.6895 -36.6894 -36.6894 -36.6890 -36.6889 -36.6889 -36.6888 -36.6888
   -36.6013 -36.6013 -36.6012 -36.6008 -36.6007 -36.6007 -36.6006 -36.6006
   -36.5601 -36.5601 -36.5601 -36.5599 -36.5599 -36.5599 -36.5598 -36.5598
   -36.5563 -36.5562 -36.5561 -36.5559 -16.6564 -16.6564 -16.6558 -16.6504
   -16.6492 -16.6483 -16.6477 -16.6472 -16.5264 -16.5263 -16.5259 -16.5251
   -16.5163 -16.5153 -16.5145 -16.5136 -16.5128 -16.5120 -16.5112 -16.5109
   -16.3278 -16.3246 -16.3231 -16.3220 -16.2876 -16.2859 -16.2849 -16.2844
   -16.2638 -16.2625 -16.2607 -16.2579 -16.2249 -16.2244 -16.2238 -16.2230
   -16.2196 -16.2173 -16.2171 -16.2170 -16.0501 -16.0411 -16.0370 -16.0343
   -15.9818 -15.9803 -15.9784 -15.9745 -15.9729 -15.9698 -15.9692 -15.9671
   -15.9272 -15.9270 -15.9261 -15.9252 -15.9241 -15.9195 -15.9190 -15.9189
   -12.9991 -12.8999 -12.7108 -12.3779 -12.2978 -12.1505 -11.8285 -11.7192
   -11.3018 -11.2743 -11.2300 -11.1900  -7.7884  -7.6114  -7.5651  -7.5178
    -7.4527  -6.7345  -6.5911  -6.4948  -6.4186  -6.1888  -5.8321  -5.5966
    -5.0458  -4.8980  -4.3619  -4.3392  -4.3232  -3.9419  -3.9045  -3.6988
    -3.5804  -3.4463  -3.3109  -3.1693  -2.9067  -2.8806  -2.8148  -2.7567
    -2.5727  -2.4427  -2.3877  -2.3294  -2.2498  -2.1293  -2.1142  -1.9387
    -1.8144  -1.1658  -1.1558  -0.9416  -0.8718  -0.7576  -0.5348  -0.2406
    -0.0153   0.8504   1.1268   1.1966   1.5690   1.6011   1.6970   1.7213
     1.7980   1.9492   1.9642   2.0018   2.0139   2.1508   2.1808   2.4447
     2.6052   2.6641   2.6647   2.9582   3.0525   3.0608   3.3516   3.4531
     3.5793   3.7030

          k = 0.2500 0.6640 0.0000 (186642 PWs)   bands (ev):

   -37.2470 -37.2470 -37.2469 -37.2467 -37.2467 -37.2465 -37.2465 -37.2465
   -37.0570 -37.0570 -37.0569 -37.0569 -37.0551 -37.0551 -37.0550 -37.0550
   -36.9963 -36.9963 -36.9962 -36.9961 -36.7228 -36.7227 -36.7226 -36.7224
   -36.7113 -36.7113 -36.7112 -36.7112 -36.7111 -36.7111 -36.7110 -36.7110
   -36.6895 -36.6894 -36.6894 -36.6890 -36.6890 -36.6888 -36.6888 -36.6888
   -36.6013 -36.6012 -36.6012 -36.6009 -36.6008 -36.6006 -36.6005 -36.6005
   -36.5601 -36.5601 -36.5600 -36.5600 -36.5600 -36.5599 -36.5598 -36.5598
   -36.5563 -36.5562 -36.5561 -36.5559 -16.6564 -16.6564 -16.6560 -16.6511
   -16.6501 -16.6475 -16.6471 -16.6470 -16.5267 -16.5260 -16.5259 -16.5251
   -16.5159 -16.5156 -16.5140 -16.5138 -16.5138 -16.5122 -16.5110 -16.5104
   -16.3280 -16.3249 -16.3242 -16.3211 -16.2874 -16.2858 -16.2853 -16.2837
   -16.2651 -16.2614 -16.2605 -16.2579 -16.2251 -16.2250 -16.2235 -16.2232
   -16.2190 -16.2176 -16.2168 -16.2167 -16.0502 -16.0415 -16.0397 -16.0315
   -15.9832 -15.9788 -15.9780 -15.9765 -15.9712 -15.9698 -15.9694 -15.9669
   -15.9274 -15.9273 -15.9268 -15.9244 -15.9237 -15.9194 -15.9192 -15.9187
   -13.0913 -12.7949 -12.7025 -12.4540 -12.2155 -12.1446 -11.8479 -11.7188
   -11.3299 -11.2488 -11.2287 -11.1892  -7.7894  -7.6650  -7.5338  -7.5207
    -7.4530  -6.7495  -6.6878  -6.4222  -6.4079  -6.2147  -6.0577  -5.3604
    -5.0212  -4.8504  -4.3776  -4.3547  -4.2566  -3.9521  -3.8813  -3.7120
    -3.6406  -3.4359  -3.3200  -3.0126  -2.9141  -2.8464  -2.8138  -2.7726
    -2.5739  -2.4686  -2.4201  -2.4066  -2.1859  -2.1260  -2.0685  -2.0493
    -1.6823  -1.2449  -1.1277  -1.0126  -0.7984  -0.6345  -0.5870  -0.4627
     0.2043   0.9051   1.0496   1.2392   1.4889   1.5641   1.6052   1.6617
     1.6995   1.8890   1.9744   1.9899   2.0881   2.1053   2.1383   2.4637
     2.5254   2.6712   2.6832   2.8766   3.1300   3.1419   3.2514   3.4717
     3.5806   3.6292

          k = 0.2500-0.3753 0.0000 (186648 PWs)   bands (ev):

   -37.2470 -37.2470 -37.2469 -37.2468 -37.2468 -37.2465 -37.2465 -37.2464
   -37.0570 -37.0570 -37.0569 -37.0569 -37.0552 -37.0551 -37.0550 -37.0550
   -36.9964 -36.9962 -36.9962 -36.9961 -36.7229 -36.7226 -36.7226 -36.7224
   -36.7113 -36.7113 -36.7112 -36.7111 -36.7111 -36.7111 -36.7110 -36.7110
   -36.6895 -36.6894 -36.6894 -36.6892 -36.6891 -36.6887 -36.6887 -36.6887
   -36.6013 -36.6013 -36.6012 -36.6010 -36.6009 -36.6005 -36.6005 -36.6004
   -36.5601 -36.5601 -36.5600 -36.5600 -36.5600 -36.5599 -36.5598 -36.5598
   -36.5564 -36.5561 -36.5561 -36.5559 -16.6566 -16.6565 -16.6563 -16.6530
   -16.6517 -16.6461 -16.6458 -16.6456 -16.5271 -16.5259 -16.5257 -16.5251
   -16.5161 -16.5159 -16.5147 -16.5138 -16.5131 -16.5125 -16.5107 -16.5099
   -16.3288 -16.3267 -16.3263 -16.3198 -16.2869 -16.2856 -16.2853 -16.2820
   -16.2677 -16.2598 -16.2594 -16.2576 -16.2260 -16.2259 -16.2250 -16.2221
   -16.2180 -16.2174 -16.2160 -16.2160 -16.0505 -16.0445 -16.0432 -16.0260
   -15.9856 -15.9805 -15.9760 -15.9756 -15.9699 -15.9698 -15.9686 -15.9664
   -15.9285 -15.9282 -15.9280 -15.9227 -15.9222 -15.9194 -15.9189 -15.9184
   -13.2507 -12.6613 -12.5886 -12.5748 -12.1160 -12.0532 -11.9278 -11.7294
   -11.3840 -11.2227 -11.2080 -11.1859  -7.7929  -7.7733  -7.5500  -7.5376
    -7.4469  -6.8645  -6.8160  -6.4420  -6.4258  -6.3248  -6.2816  -4.9177
    -4.8916  -4.6357  -4.4017  -4.3742  -4.0359  -3.9944  -3.9286  -3.7588
    -3.6414  -3.4357  -3.1287  -2.8597  -2.8331  -2.8156  -2.7940  -2.6476
    -2.6150  -2.5943  -2.5696  -2.3989  -2.2315  -2.1796  -2.1049  -1.8670
    -1.4086  -1.4066  -1.1507  -1.0234  -0.8720  -0.7825  -0.6570  -0.2484
     0.5611   0.9024   0.9400   1.1627   1.2641   1.3194   1.3337   1.4052
     1.5702   1.6598   1.8846   2.0113   2.1368   2.1379   2.1404   2.4874
     2.5067   2.6343   2.6837   2.8252   3.0173   3.0765   3.1716   3.1732
     3.2953   3.7457

          k = 0.2500-0.2598 0.0000 (186613 PWs)   bands (ev):

   -37.2470 -37.2470 -37.2469 -37.2469 -37.2468 -37.2464 -37.2464 -37.2464
   -37.0570 -37.0570 -37.0569 -37.0569 -37.0552 -37.0551 -37.0550 -37.0550
   -36.9964 -36.9962 -36.9961 -36.9961 -36.7229 -36.7226 -36.7225 -36.7224
   -36.7113 -36.7113 -36.7113 -36.7111 -36.7111 -36.7111 -36.7110 -36.7109
   -36.6895 -36.6895 -36.6894 -36.6893 -36.6893 -36.6886 -36.6886 -36.6886
   -36.6013 -36.6013 -36.6012 -36.6011 -36.6010 -36.6004 -36.6004 -36.6003
   -36.5602 -36.5601 -36.5601 -36.5600 -36.5599 -36.5599 -36.5598 -36.5598
   -36.5565 -36.5561 -36.5560 -36.5560 -16.6573 -16.6565 -16.6563 -16.6548
   -16.6531 -16.6450 -16.6445 -16.6443 -16.5275 -16.5258 -16.5254 -16.5252
   -16.5166 -16.5160 -16.5155 -16.5133 -16.5126 -16.5125 -16.5105 -16.5095
   -16.3298 -16.3290 -16.3281 -16.3190 -16.2862 -16.2856 -16.2848 -16.2801
   -16.2701 -16.2588 -16.2579 -16.2572 -16.2268 -16.2268 -16.2264 -16.2211
   -16.2182 -16.2158 -16.2152 -16.2150 -16.0509 -16.0484 -16.0456 -16.0211
   -15.9874 -15.9843 -15.9731 -15.9727 -15.9702 -15.9701 -15.9669 -15.9660
   -15.9294 -15.9293 -15.9289 -15.9213 -15.9208 -15.9195 -15.9185 -15.9181
   -13.3718 -12.6930 -12.5894 -12.3571 -12.0671 -12.0414 -11.9134 -11.7647
   -11.4295 -11.2133 -11.1866 -11.1832  -7.8644  -7.7913  -7.6616  -7.5758
    -7.4137  -7.0957  -6.9125  -6.5555  -6.4792  -6.4593  -6.2182  -4.6739
[...]
     1.5702   1.6598   1.8846   2.0113   2.1368   2.1379   2.1404   2.4874
     2.5067   2.6343   2.6837   2.8252   3.0173   3.0765   3.1716   3.1732
     3.2953   3.7457

          k = 0.4500 0.0866 0.0000 (186606 PWs)   bands (ev):

   -37.2470 -37.2470 -37.2469 -37.2468 -37.2468 -37.2465 -37.2464 -37.2464
   -37.0570 -37.0570 -37.0569 -37.0569 -37.0551 -37.0551 -37.0550 -37.0550
   -36.9964 -36.9962 -36.9962 -36.9961 -36.7229 -36.7226 -36.7226 -36.7224
   -36.7113 -36.7113 -36.7112 -36.7111 -36.7111 -36.7110 -36.7110 -36.7110
   -36.6895 -36.6895 -36.6894 -36.6892 -36.6891 -36.6887 -36.6887 -36.6887
   -36.6013 -36.6013 -36.6012 -36.6010 -36.6009 -36.6005 -36.6004 -36.6004
   -36.5602 -36.5601 -36.5600 -36.5600 -36.5599 -36.5599 -36.5598 -36.5598
   -36.5564 -36.5562 -36.5561 -36.5559 -16.6570 -16.6566 -16.6557 -16.6531
   -16.6515 -16.6465 -16.6457 -16.6456 -16.5271 -16.5259 -16.5257 -16.5252
   -16.5164 -16.5162 -16.5144 -16.5134 -16.5129 -16.5119 -16.5113 -16.5102
   -16.3287 -16.3271 -16.3257 -16.3199 -16.2869 -16.2860 -16.2849 -16.2820
   -16.2676 -16.2605 -16.2588 -16.2576 -16.2259 -16.2258 -16.2251 -16.2222
   -16.2179 -16.2173 -16.2162 -16.2159 -16.0503 -16.0457 -16.0418 -16.0265
   -15.9850 -15.9805 -15.9763 -15.9751 -15.9713 -15.9702 -15.9676 -15.9662
   -15.9285 -15.9285 -15.9275 -15.9229 -15.9221 -15.9197 -15.9188 -15.9184
   -13.2399 -12.7421 -12.5795 -12.4837 -12.1766 -11.9898 -11.9638 -11.7333
   -11.3802 -11.2388 -11.1951 -11.1835  -7.7821  -7.7656  -7.5746  -7.5378
    -7.4141  -6.9205  -6.7654  -6.4976  -6.4530  -6.2906  -6.2048  -4.9583
    -4.8636  -4.6163  -4.4227  -4.3531  -4.0849  -4.0648  -4.0078  -3.8512
    -3.5945  -3.2544  -3.1113  -2.9146  -2.8217  -2.8203  -2.7703  -2.6103
    -2.6068  -2.5782  -2.5398  -2.4105  -2.2867  -2.1285  -2.1261  -1.8473
    -1.4456  -1.3764  -1.2814  -0.9554  -0.9119  -0.6871  -0.6422  -0.2204
     0.4815   0.7042   0.8160   1.1039   1.1154   1.2429   1.5053   1.5274
     1.7184   1.8119   1.8919   2.0178   2.1082   2.1438   2.1465   2.5038
     2.5442   2.5768   2.7018   2.9499   3.0169   3.1072   3.1993   3.2266
     3.3242   3.7663

          k = 0.4500 0.2021 0.0000 (186681 PWs)   bands (ev):

   -37.2470 -37.2470 -37.2468 -37.2468 -37.2467 -37.2465 -37.2464 -37.2464
   -37.0570 -37.0570 -37.0569 -37.0569 -37.0551 -37.0551 -37.0551 -37.0550
   -36.9964 -36.9963 -36.9961 -36.9961 -36.7228 -36.7227 -36.7225 -36.7225
   -36.7113 -36.7113 -36.7112 -36.7111 -36.7111 -36.7110 -36.7110 -36.7110
   -36.6895 -36.6895 -36.6893 -36.6892 -36.6891 -36.6888 -36.6887 -36.6887
   -36.6013 -36.6013 -36.6011 -36.6010 -36.6009 -36.6006 -36.6004 -36.6004
   -36.5602 -36.5601 -36.5600 -36.5600 -36.5599 -36.5599 -36.5598 -36.5598
   -36.5564 -36.5562 -36.5560 -36.5560 -16.6572 -16.6568 -16.6545 -16.6536
   -16.6507 -16.6474 -16.6457 -16.6456 -16.5269 -16.5262 -16.5254 -16.5253
   -16.5166 -16.5163 -16.5141 -16.5129 -16.5128 -16.5119 -16.5114 -16.5106
   -16.3281 -16.3276 -16.3244 -16.3206 -16.2869 -16.2866 -16.2842 -16.2824
   -16.2666 -16.2620 -16.2582 -16.2579 -16.2255 -16.2252 -16.2252 -16.2229
   -16.2175 -16.2172 -16.2167 -16.2162 -16.0492 -16.0476 -16.0387 -16.0288
   -15.9827 -15.9802 -15.9768 -15.9746 -15.9738 -15.9720 -15.9663 -15.9659
   -15.9286 -15.9286 -15.9266 -15.9236 -15.9216 -15.9206 -15.9185 -15.9184
   -13.1865 -12.8828 -12.5342 -12.2944 -12.2856 -12.1076 -11.8694 -11.7751
   -11.3617 -11.2714 -11.1783 -11.1763  -7.7285  -7.7263  -7.6455  -7.5669
    -7.2664  -7.0756  -6.6498  -6.5378  -6.4983  -6.3376  -5.9417  -5.1411
    -4.7271  -4.5167  -4.4932  -4.4304  -4.2762  -4.1795  -4.1423  -4.0704
    -3.3365  -3.0801  -3.0722  -3.0176  -2.7729  -2.7465  -2.6974  -2.5871
    -2.5683  -2.4962  -2.4527  -2.4417  -2.4007  -2.2336  -2.0217  -1.7486
    -1.5871  -1.5466  -1.2434  -1.0971  -0.7505  -0.6116  -0.4795  -0.0803
     0.2276   0.2470   0.6394   0.8987   0.9170   1.0424   1.8295   1.8399
     1.8520   1.9168   2.0591   2.0765   2.1010   2.1127   2.3625   2.4704
     2.5180   2.5902   2.7871   3.0176   3.1732   3.2500   3.3611   3.4638
     3.5224   3.7051

     the Fermi energy is    -1.6944 ev

!    total energy              =   -4146.60052744 Ry
     estimated scf accuracy    <          5.5E-10 Ry
     smearing contrib. (-TS)   =      -0.00000035 Ry
     internal energy E=F+TS    =   -4146.60052709 Ry

     The total energy is F=E-TS. E is the sum of the following terms:
     one-electron contribution =  -50027.83491325 Ry
     hartree contribution      =   25089.77738047 Ry
     xc contribution           =    -964.54682530 Ry
     ewald contribution        =   21756.00334631 Ry
     electric field correction =       0.00048468 Ry

     convergence has been achieved in  24 iterations

     Forces acting on atoms (cartesian axes, Ry/au):

     atom    1 type  1   force =     0.00005611   -0.00003298   -0.01406742
     atom    2 type  1   force =    -0.00003654    0.00001923    0.00660162
     atom    3 type  1   force =    -0.00004418    0.00002594    0.02208202
     atom    4 type  1   force =    -0.00003644    0.00001987    0.00660157
     atom    5 type  1   force =    -0.00004395    0.00002601    0.02208202
     atom    6 type  1   force =     0.00005617   -0.00003296   -0.01406740
     atom    7 type  1   force =    -0.00003608    0.00001950    0.00660182
     atom    8 type  1   force =    -0.00004362    0.00002649    0.02208243
     atom    9 type  1   force =     0.00005568   -0.00003287   -0.01406756
     atom   10 type  1   force =    -0.00003619    0.00002013    0.00660209
     atom   11 type  1   force =    -0.00004461    0.00002604    0.02208447
     atom   12 type  1   force =     0.00005564   -0.00003285   -0.01406751
     atom   13 type  2   force =     0.00008216   -0.00004746   -0.00871144
     atom   14 type  2   force =    -0.00000968    0.00000638   -0.01409636
     atom   15 type  2   force =    -0.00004797    0.00002837    0.00819265
     atom   16 type  2   force =    -0.00004792    0.00002872    0.00819233
     atom   17 type  2   force =     0.00008200   -0.00004848   -0.00871149
     atom   18 type  2   force =    -0.00000956    0.00000637   -0.01409657
     atom   19 type  2   force =     0.00008090   -0.00004674   -0.00871149
     atom   20 type  2   force =    -0.00000945    0.00000630   -0.01409685
     atom   21 type  2   force =    -0.00004725    0.00002833    0.00819011
     atom   22 type  2   force =     0.00008139   -0.00004803   -0.00871200
     atom   23 type  2   force =    -0.00000948    0.00000631   -0.01409696
     atom   24 type  2   force =    -0.00004716    0.00002837    0.00818991
     The non-local contrib.  to forces
     atom    1 type  1   force =    -0.00034700    0.00019922    0.35476062
     atom    2 type  1   force =     0.00010609   -0.00006317   -0.08600416
     atom    3 type  1   force =     0.00001454   -0.00000816   -0.10560462
     atom    4 type  1   force =     0.00010598   -0.00006285   -0.08600430
     atom    5 type  1   force =     0.00001440   -0.00000823   -0.10560352
     atom    6 type  1   force =    -0.00034693    0.00019921    0.35476061
     atom    7 type  1   force =     0.00010685   -0.00006334   -0.08600409
     atom    8 type  1   force =     0.00001465   -0.00000759   -0.10560555
     atom    9 type  1   force =    -0.00034754    0.00019928    0.35476072
     atom   10 type  1   force =     0.00010682   -0.00006286   -0.08600429
     atom   11 type  1   force =     0.00001382   -0.00000799   -0.10560207
     atom   12 type  1   force =    -0.00034757    0.00019928    0.35476061
     atom   13 type  2   force =    -0.00026879    0.00015515   -0.04914000
     atom   14 type  2   force =    -0.00003559    0.00002103   -0.45735783
     atom   15 type  2   force =    -0.00003531    0.00002098    0.10792413
     atom   16 type  2   force =    -0.00003535    0.00002071    0.10792413
     atom   17 type  2   force =    -0.00026910    0.00015448   -0.04914025
     atom   18 type  2   force =    -0.00003506    0.00002117   -0.45735746
     atom   19 type  2   force =    -0.00026887    0.00015457   -0.04914011
     atom   20 type  2   force =    -0.00003502    0.00002123   -0.45735907
     atom   21 type  2   force =    -0.00003393    0.00001982    0.10792329
     atom   22 type  2   force =    -0.00026908    0.00015448   -0.04913997
     atom   23 type  2   force =    -0.00003543    0.00002103   -0.45735825
     atom   24 type  2   force =    -0.00003401    0.00001984    0.10792335
     The ionic contribution  to forces
     atom    1 type  1   force =     0.00000062   -0.00000103 -167.56823365
     atom    2 type  1   force =    -0.00001377   -0.00001957  -53.88644650
     atom    3 type  1   force =    -0.00001024    0.00001227   80.02791724
     atom    4 type  1   force =    -0.00000297    0.00001769  -53.88645316
     atom    5 type  1   force =     0.00000702   -0.00000737   80.02792777
     atom    6 type  1   force =     0.00000475   -0.00000180 -167.56823119
     atom    7 type  1   force =     0.00002264   -0.00003124  -53.88645601
     atom    8 type  1   force =     0.00001650    0.00002370   80.02792137
     atom    9 type  1   force =    -0.00000123    0.00000357 -167.56823276
     atom   10 type  1   force =     0.00001018    0.00000841  -53.88644934
     atom   11 type  1   force =    -0.00002147    0.00000292   80.02794471
     atom   12 type  1   force =    -0.00000448   -0.00000021 -167.56822758
     atom   13 type  2   force =    -0.00001144    0.00000988   53.88643765
     atom   14 type  2   force =     0.00000929    0.00000439  188.12656113
     atom   15 type  2   force =     0.00000361   -0.00001556 -100.58625196
     atom   16 type  2   force =     0.00000416    0.00001198 -100.58626457
     atom   17 type  2   force =    -0.00000886   -0.00002094   53.88645403
     atom   18 type  2   force =    -0.00001214   -0.00000315  188.12655812
     atom   19 type  2   force =     0.00000615    0.00001817   53.88645570
     atom   20 type  2   force =    -0.00001042   -0.00000688  188.12656606
     atom   21 type  2   force =    -0.00001530    0.00000675 -100.58623605
     atom   22 type  2   force =     0.00002291   -0.00003952   53.88643932
     atom   23 type  2   force =     0.00001303    0.00000656  188.12655919
     atom   24 type  2   force =    -0.00000852    0.00002098 -100.58625955
     The local contribution  to forces
     atom    1 type  1   force =     0.00041847   -0.00023888  167.16919958
     atom    2 type  1   force =    -0.00013674    0.00010914   53.95075754
     atom    3 type  1   force =    -0.00005369    0.00002420  -79.92518786
     atom    4 type  1   force =    -0.00014716    0.00007193   53.95076386
     atom    5 type  1   force =    -0.00007097    0.00004470  -79.92518222
     atom    6 type  1   force =     0.00041427   -0.00023777  167.16919763
     atom    7 type  1   force =    -0.00016699    0.00011739   53.95076519
     atom    8 type  1   force =    -0.00008326    0.00001463  -79.92521310
     atom    9 type  1   force =     0.00042015   -0.00024332  167.16920033
     atom   10 type  1   force =    -0.00015490    0.00007749   53.95075888
     atom   11 type  1   force =    -0.00004603    0.00003635  -79.92521732
     atom   12 type  1   force =     0.00042330   -0.00023921  167.16919550
     atom   13 type  2   force =     0.00036220   -0.00021541  -53.88242883
     atom   14 type  2   force =     0.00001539   -0.00001941 -187.72726570
     atom   15 type  2   force =    -0.00002127    0.00002445  100.44944472
     atom   16 type  2   force =    -0.00002174   -0.00000266  100.44945686
     atom   17 type  2   force =     0.00035881   -0.00017728  -53.88244125
     atom   18 type  2   force =     0.00003631   -0.00001166 -187.72725846
     atom   19 type  2   force =     0.00036015   -0.00023312  -53.88243761
     atom   20 type  2   force =     0.00003538   -0.00000875 -187.72726868
     atom   21 type  2   force =    -0.00000072    0.00000150  100.44943614
     atom   22 type  2   force =     0.00034527   -0.00016747  -53.88241739
     atom   23 type  2   force =     0.00001209   -0.00002162 -187.72725521
     atom   24 type  2   force =    -0.00000715   -0.00001264  100.44945824
     The core correction contribution to forces
     atom    1 type  1   force =    -0.00001517    0.00000883   -0.00049417
     atom    2 type  1   force =     0.00000773   -0.00000428   -0.00240466
     atom    3 type  1   force =     0.00000734   -0.00000422   -0.00575567
     atom    4 type  1   force =     0.00000772   -0.00000431   -0.00240465
     atom    5 type  1   force =     0.00000730   -0.00000424   -0.00575562
     atom    6 type  1   force =    -0.00001517    0.00000884   -0.00049416
     atom    7 type  1   force =     0.00000783   -0.00000438   -0.00240475
     atom    8 type  1   force =     0.00000726   -0.00000424   -0.00575592
     atom    9 type  1   force =    -0.00001515    0.00000883   -0.00049405
     atom   10 type  1   force =     0.00000784   -0.00000438   -0.00240478
     atom   11 type  1   force =     0.00000727   -0.00000419   -0.00575562
     atom   12 type  1   force =    -0.00001515    0.00000884   -0.00049405
     atom   13 type  2   force =    -0.00000941    0.00000545    0.00100496
     atom   14 type  2   force =     0.00000064   -0.00000039    0.00852207
     atom   15 type  2   force =     0.00000368   -0.00000215    0.00165177
     atom   16 type  2   force =     0.00000369   -0.00000214    0.00165176
     atom   17 type  2   force =    -0.00000941    0.00000547    0.00100496
     atom   18 type  2   force =     0.00000062   -0.00000039    0.00852209
     atom   19 type  2   force =    -0.00000926    0.00000537    0.00100506
     atom   20 type  2   force =     0.00000064   -0.00000041    0.00852194
     atom   21 type  2   force =     0.00000374   -0.00000218    0.00165206
     atom   22 type  2   force =    -0.00000926    0.00000543    0.00100509
     atom   23 type  2   force =     0.00000063   -0.00000040    0.00852206
     atom   24 type  2   force =     0.00000374   -0.00000217    0.00165202
     The Hubbard contrib.    to forces
     atom    1 type  1   force =     0.00000000    0.00000000    0.00000000
     atom    2 type  1   force =     0.00000000    0.00000000    0.00000000
     atom    3 type  1   force =     0.00000000    0.00000000    0.00000000
     atom    4 type  1   force =     0.00000000    0.00000000    0.00000000
     atom    5 type  1   force =     0.00000000    0.00000000    0.00000000
     atom    6 type  1   force =     0.00000000    0.00000000    0.00000000
     atom    7 type  1   force =     0.00000000    0.00000000    0.00000000
     atom    8 type  1   force =     0.00000000    0.00000000    0.00000000
     atom    9 type  1   force =     0.00000000    0.00000000    0.00000000
     atom   10 type  1   force =     0.00000000    0.00000000    0.00000000
     atom   11 type  1   force =     0.00000000    0.00000000    0.00000000
     atom   12 type  1   force =     0.00000000    0.00000000    0.00000000
     atom   13 type  2   force =     0.00000000    0.00000000    0.00000000
     atom   14 type  2   force =     0.00000000    0.00000000    0.00000000
     atom   15 type  2   force =     0.00000000    0.00000000    0.00000000
     atom   16 type  2   force =     0.00000000    0.00000000    0.00000000
     atom   17 type  2   force =     0.00000000    0.00000000    0.00000000
     atom   18 type  2   force =     0.00000000    0.00000000    0.00000000
     atom   19 type  2   force =     0.00000000    0.00000000    0.00000000
     atom   20 type  2   force =     0.00000000    0.00000000    0.00000000
     atom   21 type  2   force =     0.00000000    0.00000000    0.00000000
     atom   22 type  2   force =     0.00000000    0.00000000    0.00000000
     atom   23 type  2   force =     0.00000000    0.00000000    0.00000000
     atom   24 type  2   force =     0.00000000    0.00000000    0.00000000
     The SCF correction term to forces
     atom    1 type  1   force =    -0.00000079   -0.00000145   -0.00000116
     atom    2 type  1   force =     0.00000018   -0.00000321   -0.00000196
     atom    3 type  1   force =    -0.00000211    0.00000153    0.00001157
     atom    4 type  1   force =     0.00000000   -0.00000291   -0.00000153
     atom    5 type  1   force =    -0.00000169    0.00000083   -0.00000574
     atom    6 type  1   force =    -0.00000072   -0.00000177   -0.00000165
     atom    7 type  1   force =    -0.00000639    0.00000075    0.00000013
     atom    8 type  1   force =     0.00000125   -0.00000034    0.00003428
     atom    9 type  1   force =    -0.00000053   -0.00000155   -0.00000316
     atom   10 type  1   force =    -0.00000611    0.00000115    0.00000027
     atom   11 type  1   force =     0.00000182   -0.00000137    0.00001342
     atom   12 type  1   force =    -0.00000044   -0.00000188   -0.00000334
     atom   13 type  2   force =     0.00000961   -0.00000285   -0.00000994
     atom   14 type  2   force =     0.00000061    0.00000044    0.00001924
     atom   15 type  2   force =     0.00000133    0.00000033   -0.00000073
     atom   16 type  2   force =     0.00000134    0.00000050   -0.00000057
     atom   17 type  2   force =     0.00001059   -0.00001052   -0.00001371
     atom   18 type  2   force =     0.00000072    0.00000007    0.00001440
     atom   19 type  2   force =    -0.00000725    0.00000795   -0.00001925
     atom   20 type  2   force =    -0.00000001    0.00000079    0.00001818
     atom   21 type  2   force =    -0.00000103    0.00000213   -0.00001006
     atom   22 type  2   force =    -0.00000843   -0.00000128   -0.00002378
     atom   23 type  2   force =     0.00000022    0.00000042    0.00001052
     atom   24 type  2   force =    -0.00000120    0.00000204   -0.00000888

     Total force =     0.065448     Total SCF correction =     0.000068

     Writing all to output data dir ./temp/GaAs_111_0D001Ha.save/

     init_run     :     26.35s CPU     16.78s WALL (       1 calls)
     electrons    :   1280.29s CPU    808.28s WALL (       1 calls)
     forces       :     12.27s CPU      7.71s WALL (       1 calls)

     Called by init_run:
     wfcinit      :     15.96s CPU      9.85s WALL (       1 calls)
     potinit      :      3.83s CPU      2.09s WALL (       1 calls)
     hinit0       :      6.18s CPU      4.45s WALL (       1 calls)

     Called by electrons:
     c_bands      :   1082.07s CPU    703.19s WALL (      25 calls)
     sum_band     :    192.98s CPU    100.48s WALL (      25 calls)
     v_of_rho     :      3.62s CPU      3.02s WALL (      25 calls)
     mix_rho      :      1.17s CPU      1.10s WALL (      25 calls)

     Called by c_bands:
     init_us_2    :     13.75s CPU      6.94s WALL (     364 calls)
     init_us_2:cp :     13.74s CPU      6.94s WALL (     364 calls)
     cegterg      :   1012.10s CPU    648.63s WALL (     175 calls)

     Called by *egterg:
     cdiaghg      :     48.00s CPU     28.42s WALL (    1141 calls)
     h_psi        :    798.55s CPU    461.84s WALL (    1155 calls)
     g_psi        :      3.56s CPU      1.79s WALL (     973 calls)

     Called by h_psi:
     h_psi:calbec :     51.12s CPU     45.20s WALL (    1155 calls)
     vloc_psi     :    690.47s CPU    361.11s WALL (    1155 calls)
     add_vuspsi   :     49.83s CPU     49.99s WALL (    1155 calls)

     General routines
     calbec       :     53.90s CPU     47.84s WALL (    1183 calls)
     fft          :      1.83s CPU      1.95s WALL (     261 calls)
     ffts         :      0.09s CPU      0.10s WALL (      25 calls)
     fftw         :    651.83s CPU    343.83s WALL (  202848 calls)

     Parallel routines

     PWSCF        :  22m 1.53s CPU  13m58.22s WALL


   This run was terminated on:  17:26:11  20Mar2025            

=------------------------------------------------------------------------------=
   JOB DONE.
=------------------------------------------------------------------------------=
