
     Program PWSCF v.7.2 starts on 20Mar2025 at 19:57:19 

     This program is part of the open-source Quantum ESPRESSO suite
     for quantum simulation of materials; please cite
         "P. Giannozzi et al., J. Phys.:Condens. Matter 21 395502 (2009);
         "P. Giannozzi et al., J. Phys.:Condens. Matter 29 465901 (2017);
         "P. Giannozzi et al., J. Chem. Phys. 152 154105 (2020);
          URL http://www.quantum-espresso.org", 
     in publications or presentations arising from this work. More details at
     http://www.quantum-espresso.org/quote

     Parallel version (MPI & OpenMP), running on     288 processor cores
     Number of MPI processes:               144
     Threads/MPI process:                     2

     MPI processes distributed on     6 nodes
     733224 MiB available memory on the printing compute node when the environment starts

     Reading input from GaAs111_M0D003Ha.scf.in

     Current dimensions of program PWSCF are:
     Max number of different atomic species (ntypx) = 10
     Max number of k-points (npk) =  40000
     Max angular momentum in pseudopotentials (lmaxx) =  4
     Found identity + (  0.5000 -0.5000  0.0000) symmetry
     This is a supercell, fractional translations are disabled

     K-points division:     npool     =       8
     R & G space division:  proc/nbgrp/npool/nimage =      18
     Subspace diagonalization in iterative solution of the eigenvalue problem:
     one sub-group per band group will be used
     ELPA distributed-memory algorithm (size of sub-group:  2*  2 procs)


     Parallelization info
     --------------------
     sticks:   dense  smooth     PW     G-vecs:    dense   smooth      PW
     Min         288     288     78                82920    82920   11697
     Max         289     289     80                82953    82953   11708
     Sum        5197    5197   1417              1492917  1492917  210619

     Using Slab Decomposition



     bravais-lattice index     =            0
     lattice parameter (alat)  =      15.3672  a.u.
     unit-cell volume          =   15443.3545 (a.u.)^3
     number of atoms/cell      =           24
     number of atomic types    =            2
     number of electrons       =       336.00
     number of Kohn-Sham states=          202
     kinetic-energy cutoff     =      80.0000  Ry
     charge density cutoff     =     320.0000  Ry
     scf convergence threshold =      1.0E-09
     mixing beta               =       0.7000
     number of iterations used =            8  plain     mixing
     Exchange-correlation= PBE
                           (   1   4   3   4   0   0   0)

     celldm(1)=  15.367226  celldm(2)=   0.000000  celldm(3)=   0.000000
     celldm(4)=   0.000000  celldm(5)=   0.000000  celldm(6)=   0.000000

     crystal axes: (cart. coord. in units of alat)
               a(1) = (   1.000000   0.000000   0.000000 )  
               a(2) = (  -0.500000   0.866025   0.000000 )  
               a(3) = (   0.000000   0.000000   4.913881 )  

     reciprocal axes: (cart. coord. in units 2 pi/alat)
               b(1) = (  1.000000  0.577350 -0.000000 )  
               b(2) = (  0.000000  1.154701  0.000000 )  
               b(3) = (  0.000000 -0.000000  0.203505 )  


     PseudoPot. # 1 for Ga read from file:
     ./Ga.upf
     MD5 check sum: 93d095ea82f116b4e2622455073fb9ee
     Pseudo is Norm-conserving + core correction, Zval = 13.0
     Generated using ONCVPSP code by D. R. Hamann
     Using radial grid of 1902 points,  6 beta functions with: 
                l(1) =   0
                l(2) =   0
                l(3) =   1
                l(4) =   1
                l(5) =   2
                l(6) =   2

     PseudoPot. # 2 for As read from file:
     ./As.upf
     MD5 check sum: 280d9fd8ba68a23ae96e751fcede625c
     Pseudo is Norm-conserving + core correction, Zval = 15.0
     Generated using ONCVPSP code by D. R. Hamann
     Using radial grid of 1350 points,  6 beta functions with: 
                l(1) =   0
                l(2) =   0
                l(3) =   1
                l(4) =   1
                l(5) =   2
                l(6) =   2

     atomic species   valence    mass     pseudopotential
        Ga            13.00    69.72000     Ga( 1.00)
        As            15.00    74.92000     As( 1.00)

     No symmetry found



   Cartesian axes

     site n.     atom                  positions (alat units)
         1           Ga  tau(   1) = (   0.0000000   0.0000000   1.8955990  )
         2           Ga  tau(   2) = (   0.0000000   0.5773504   2.3038472  )
         3           Ga  tau(   3) = (   0.5000000   0.2886751   2.7120955  )
         4           Ga  tau(   4) = (   0.7500000   0.1443376   2.3038472  )
         5           Ga  tau(   5) = (  -0.2500001   0.7216878   2.7120955  )
         6           Ga  tau(   6) = (   0.2499999   0.4330127   1.8955990  )
         7           Ga  tau(   7) = (   0.4999999   0.5773504   2.3038472  )
         8           Ga  tau(   8) = (  -0.0000001   0.2886751   2.7120955  )
         9           Ga  tau(   9) = (   0.5000000   0.0000000   1.8955990  )
        10           Ga  tau(  10) = (   0.2500000   0.1443376   2.3038472  )
        11           Ga  tau(  11) = (   0.2500000   0.7216878   2.7120955  )
        12           Ga  tau(  12) = (  -0.2500000   0.4330127   1.8955990  )
        13           As  tau(  13) = (   0.7500000   0.1443376   2.6100335  )
        14           As  tau(  14) = (  -0.2500001   0.7216878   3.0182815  )
        15           As  tau(  15) = (   0.2499999   0.4330127   2.2017852  )
        16           As  tau(  16) = (   0.0000000   0.0000000   2.2017852  )
        17           As  tau(  17) = (   0.0000000   0.5773504   2.6100335  )
        18           As  tau(  18) = (   0.5000000   0.2886751   3.0182815  )
        19           As  tau(  19) = (   0.2500000   0.1443376   2.6100335  )
        20           As  tau(  20) = (   0.2500000   0.7216878   3.0182815  )
        21           As  tau(  21) = (  -0.2500000   0.4330127   2.2017852  )
        22           As  tau(  22) = (   0.4999999   0.5773504   2.6100335  )
        23           As  tau(  23) = (  -0.0000001   0.2886751   3.0182815  )
        24           As  tau(  24) = (   0.5000000   0.0000000   2.2017852  )

     number of k points=    50  Fermi-Dirac smearing, width (Ry)=  0.0000
                       cart. coord. in units 2pi/alat
        k(    1) = (   0.0500000   0.0866025   0.0000000), wk =   0.0400000
        k(    2) = (   0.0500000   0.2020726   0.0000000), wk =   0.0400000
        k(    3) = (   0.0500000   0.3175426   0.0000000), wk =   0.0400000
        k(    4) = (   0.0500000   0.4330127   0.0000000), wk =   0.0400000
        k(    5) = (   0.0500000   0.5484828   0.0000000), wk =   0.0400000
        k(    6) = (   0.0500000  -0.4907477   0.0000000), wk =   0.0400000
        k(    7) = (   0.0500000  -0.3752777   0.0000000), wk =   0.0400000
        k(    8) = (   0.0500000  -0.2598076   0.0000000), wk =   0.0400000
        k(    9) = (   0.0500000  -0.1443376   0.0000000), wk =   0.0400000
        k(   10) = (   0.0500000  -0.0288675   0.0000000), wk =   0.0400000
        k(   11) = (   0.1500000   0.1443376   0.0000000), wk =   0.0400000
        k(   12) = (   0.1500000   0.2598076   0.0000000), wk =   0.0400000
        k(   13) = (   0.1500000   0.3752777   0.0000000), wk =   0.0400000
        k(   14) = (   0.1500000   0.4907477   0.0000000), wk =   0.0400000
        k(   15) = (   0.1500000   0.6062178   0.0000000), wk =   0.0400000
        k(   16) = (   0.1500000  -0.4330127   0.0000000), wk =   0.0400000
        k(   17) = (   0.1500000  -0.3175426   0.0000000), wk =   0.0400000
        k(   18) = (   0.1500000  -0.2020726   0.0000000), wk =   0.0400000
        k(   19) = (   0.1500000  -0.0866025   0.0000000), wk =   0.0400000
        k(   20) = (   0.1500000   0.0288675   0.0000000), wk =   0.0400000
        k(   21) = (   0.2500000   0.2020726   0.0000000), wk =   0.0400000
        k(   22) = (   0.2500000   0.3175426   0.0000000), wk =   0.0400000
        k(   23) = (   0.2500000   0.4330127   0.0000000), wk =   0.0400000
        k(   24) = (   0.2500000   0.5484828   0.0000000), wk =   0.0400000
        k(   25) = (   0.2500000   0.6639528   0.0000000), wk =   0.0400000
        k(   26) = (   0.2500000  -0.3752777   0.0000000), wk =   0.0400000
        k(   27) = (   0.2500000  -0.2598076   0.0000000), wk =   0.0400000
        k(   28) = (   0.2500000  -0.1443376   0.0000000), wk =   0.0400000
        k(   29) = (   0.2500000  -0.0288675   0.0000000), wk =   0.0400000
        k(   30) = (   0.2500000   0.0866025   0.0000000), wk =   0.0400000
        k(   31) = (   0.3500000   0.2598076   0.0000000), wk =   0.0400000
        k(   32) = (   0.3500000   0.3752777   0.0000000), wk =   0.0400000
        k(   33) = (   0.3500000   0.4907477   0.0000000), wk =   0.0400000
        k(   34) = (   0.3500000   0.6062178   0.0000000), wk =   0.0400000
        k(   35) = (   0.3500000   0.7216878   0.0000000), wk =   0.0400000
        k(   36) = (   0.3500000  -0.3175426   0.0000000), wk =   0.0400000
        k(   37) = (   0.3500000  -0.2020726   0.0000000), wk =   0.0400000
        k(   38) = (   0.3500000  -0.0866025   0.0000000), wk =   0.0400000
        k(   39) = (   0.3500000   0.0288675   0.0000000), wk =   0.0400000
        k(   40) = (   0.3500000   0.1443376   0.0000000), wk =   0.0400000
        k(   41) = (   0.4500000   0.3175426   0.0000000), wk =   0.0400000
        k(   42) = (   0.4500000   0.4330127   0.0000000), wk =   0.0400000
        k(   43) = (   0.4500000   0.5484828   0.0000000), wk =   0.0400000
        k(   44) = (   0.4500000   0.6639528   0.0000000), wk =   0.0400000
        k(   45) = (   0.4500000   0.7794229   0.0000000), wk =   0.0400000
        k(   46) = (   0.4500000  -0.2598076   0.0000000), wk =   0.0400000
        k(   47) = (   0.4500000  -0.1443376   0.0000000), wk =   0.0400000
        k(   48) = (   0.4500000  -0.0288675   0.0000000), wk =   0.0400000
        k(   49) = (   0.4500000   0.0866025   0.0000000), wk =   0.0400000
        k(   50) = (   0.4500000   0.2020726   0.0000000), wk =   0.0400000

     Dense  grid:  1492917 G-vectors     FFT dimensions: (  90,  90, 432)

     Estimated max dynamical RAM per process >     508.21 MB

     Estimated total dynamical RAM >      68.98 GB

     Initial potential from superposition of free atoms

     starting charge     335.9650, renormalised to     336.0000

     negative rho (up, down):  1.366E-04 0.000E+00

     Adding external electric field

     Computed dipole along edir(3) : 
        Dipole               -0.0747 Ry au,         -0.1897 Debye
        Dipole field         -0.0001 Ry au, 

        E field amplitude [Ha a.u.]: -3.0000E-03
        Potential amp.       -0.3551 Ry
        Total length         60.4102 bohr

     Starting wfcs are  216 atomic wfcs

     total cpu time spent up to now is       19.2 secs

     Self-consistent Calculation

     iteration #  1     ecut=    80.00 Ry     beta= 0.70
     Davidson diagonalization with overlap
     ethr =  1.00E-02,  avg # of iterations =  3.0

     negative rho (up, down):  3.280E-05 0.000E+00

     Adding external electric field

     Computed dipole along edir(3) : 
        Dipole              -32.3622 Ry au,        -82.2564 Debye
        Dipole field         -0.0263 Ry au, 

        E field amplitude [Ha a.u.]: -3.0000E-03
        Potential amp.        2.8191 Ry
        Total length         60.4102 bohr


     total cpu time spent up to now is       48.6 secs

     total energy              =   -4140.49763548 Ry
     estimated scf accuracy    <       7.36024019 Ry

     iteration #  2     ecut=    80.00 Ry     beta= 0.70
     Davidson diagonalization with overlap
     c_bands:  1 eigenvalues not converged
     c_bands:  1 eigenvalues not converged
     ethr =  2.19E-03,  avg # of iterations = 19.9

     negative rho (up, down):  1.454E-05 0.000E+00

     Adding external electric field

     Computed dipole along edir(3) : 
        Dipole                2.2511 Ry au,          5.7218 Debye
        Dipole field          0.0018 Ry au, 

        E field amplitude [Ha a.u.]: -3.0000E-03
        Potential amp.       -0.5838 Ry
        Total length         60.4102 bohr


     total cpu time spent up to now is      156.3 secs

     total energy              =   -3912.98837195 Ry
     estimated scf accuracy    <   17215.01119034 Ry

     iteration #  3     ecut=    80.00 Ry     beta= 0.70
     Davidson diagonalization with overlap
     ethr =  2.19E-03,  avg # of iterations = 12.5

     negative rho (up, down):  1.310E-05 0.000E+00

     Adding external electric field

     Computed dipole along edir(3) : 
        Dipole                1.3458 Ry au,          3.4208 Debye
        Dipole field          0.0011 Ry au, 

        E field amplitude [Ha a.u.]: -3.0000E-03
        Potential amp.       -0.4948 Ry
        Total length         60.4102 bohr


     total cpu time spent up to now is      236.6 secs

     total energy              =   -4140.18157174 Ry
     estimated scf accuracy    <     276.62919260 Ry

     iteration #  4     ecut=    80.00 Ry     beta= 0.70
     Davidson diagonalization with overlap
     ethr =  2.19E-03,  avg # of iterations =  6.3

     negative rho (up, down):  7.844E-06 0.000E+00

     Adding external electric field

     Computed dipole along edir(3) : 
        Dipole               -0.0534 Ry au,         -0.1356 Debye
        Dipole field         -0.0000 Ry au, 

        E field amplitude [Ha a.u.]: -3.0000E-03
        Potential amp.       -0.3572 Ry
        Total length         60.4102 bohr


     total cpu time spent up to now is      276.7 secs

     total energy              =   -4145.94197377 Ry
     estimated scf accuracy    <      10.82433700 Ry

     iteration #  5     ecut=    80.00 Ry     beta= 0.70
     Davidson diagonalization with overlap
     ethr =  2.19E-03,  avg # of iterations =  2.1

     negative rho (up, down):  4.362E-06 0.000E+00

     Adding external electric field

     Computed dipole along edir(3) : 
        Dipole                0.7910 Ry au,          2.0106 Debye
        Dipole field          0.0006 Ry au, 

        E field amplitude [Ha a.u.]: -3.0000E-03
        Potential amp.       -0.4402 Ry
        Total length         60.4102 bohr


     total cpu time spent up to now is      303.6 secs

     total energy              =   -4146.60063464 Ry
     estimated scf accuracy    <       1.29612036 Ry

     iteration #  6     ecut=    80.00 Ry     beta= 0.70
     Davidson diagonalization with overlap
     ethr =  3.86E-04,  avg # of iterations =  3.7

     negative rho (up, down):  4.156E-07 0.000E+00

     Adding external electric field

     Computed dipole along edir(3) : 
        Dipole                0.7586 Ry au,          1.9282 Debye
        Dipole field          0.0006 Ry au, 

        E field amplitude [Ha a.u.]: -3.0000E-03
        Potential amp.       -0.4370 Ry
        Total length         60.4102 bohr


     total cpu time spent up to now is      332.5 secs

     total energy              =   -4146.62652412 Ry
     estimated scf accuracy    <       0.59388315 Ry

     iteration #  7     ecut=    80.00 Ry     beta= 0.70
     Davidson diagonalization with overlap
     ethr =  1.77E-04,  avg # of iterations =  3.0

     Adding external electric field

     Computed dipole along edir(3) : 
        Dipole                0.8216 Ry au,          2.0882 Debye
        Dipole field          0.0007 Ry au, 

        E field amplitude [Ha a.u.]: -3.0000E-03
        Potential amp.       -0.4432 Ry
        Total length         60.4102 bohr


     total cpu time spent up to now is      360.1 secs

     total energy              =   -4146.62310773 Ry
     estimated scf accuracy    <       0.25762351 Ry

     iteration #  8     ecut=    80.00 Ry     beta= 0.70
     Davidson diagonalization with overlap
     c_bands:  1 eigenvalues not converged
     c_bands:  2 eigenvalues not converged
     ethr =  7.67E-05,  avg # of iterations = 11.0

     Adding external electric field

     Computed dipole along edir(3) : 
        Dipole                0.7382 Ry au,          1.8763 Debye
        Dipole field          0.0006 Ry au, 

        E field amplitude [Ha a.u.]: -3.0000E-03
        Potential amp.       -0.4350 Ry
        Total length         60.4102 bohr


     total cpu time spent up to now is      394.6 secs

     total energy              =   -4146.62860978 Ry
     estimated scf accuracy    <       0.06720874 Ry

     iteration #  9     ecut=    80.00 Ry     beta= 0.70
     Davidson diagonalization with overlap
     ethr =  2.00E-05,  avg # of iterations = 10.1

     Adding external electric field

     Computed dipole along edir(3) : 
        Dipole                0.6952 Ry au,          1.7670 Debye
        Dipole field          0.0006 Ry au, 

        E field amplitude [Ha a.u.]: -3.0000E-03
        Potential amp.       -0.4308 Ry
        Total length         60.4102 bohr


     total cpu time spent up to now is      428.4 secs

     total energy              =   -4146.62725785 Ry
     estimated scf accuracy    <       0.07076851 Ry

     iteration # 10     ecut=    80.00 Ry     beta= 0.70
     Davidson diagonalization with overlap
     ethr =  2.00E-05,  avg # of iterations =  1.0

     negative rho (up, down):  2.847E-08 0.000E+00

     Adding external electric field

     Computed dipole along edir(3) : 
        Dipole                0.5520 Ry au,          1.4030 Debye
        Dipole field          0.0004 Ry au, 

        E field amplitude [Ha a.u.]: -3.0000E-03
        Potential amp.       -0.4167 Ry
        Total length         60.4102 bohr


     total cpu time spent up to now is      453.0 secs

     total energy              =   -4146.62577418 Ry
     estimated scf accuracy    <       0.04256113 Ry

     iteration # 11     ecut=    80.00 Ry     beta= 0.70
     Davidson diagonalization with overlap
     ethr =  1.27E-05,  avg # of iterations =  1.7

     negative rho (up, down):  7.393E-06 0.000E+00

     Adding external electric field

     Computed dipole along edir(3) : 
        Dipole               -1.5217 Ry au,         -3.8679 Debye
        Dipole field         -0.0012 Ry au, 

        E field amplitude [Ha a.u.]: -3.0000E-03
        Potential amp.       -0.2129 Ry
        Total length         60.4102 bohr


     total cpu time spent up to now is      479.4 secs

     total energy              =   -4146.59772795 Ry
     estimated scf accuracy    <       0.07962815 Ry

     iteration # 12     ecut=    80.00 Ry     beta= 0.70
     Davidson diagonalization with overlap
     ethr =  1.27E-05,  avg # of iterations = 11.3

     negative rho (up, down):  6.757E-06 0.000E+00

     Adding external electric field

     Computed dipole along edir(3) : 
        Dipole               -1.6036 Ry au,         -4.0759 Debye
        Dipole field         -0.0013 Ry au, 

        E field amplitude [Ha a.u.]: -3.0000E-03
        Potential amp.       -0.2048 Ry
        Total length         60.4102 bohr


     total cpu time spent up to now is      519.3 secs

     total energy              =   -4146.60007683 Ry
     estimated scf accuracy    <       0.19652123 Ry

     iteration # 13     ecut=    80.00 Ry     beta= 0.70
     Davidson diagonalization with overlap
     ethr =  1.27E-05,  avg # of iterations =  4.7

     negative rho (up, down):  5.890E-07 0.000E+00

     Adding external electric field

     Computed dipole along edir(3) : 
        Dipole               -1.4798 Ry au,         -3.7613 Debye
        Dipole field         -0.0012 Ry au, 

        E field amplitude [Ha a.u.]: -3.0000E-03
        Potential amp.       -0.2170 Ry
        Total length         60.4102 bohr


     total cpu time spent up to now is      549.3 secs

     total energy              =   -4146.59815054 Ry
     estimated scf accuracy    <       0.12177013 Ry

     iteration # 14     ecut=    80.00 Ry     beta= 0.70
     Davidson diagonalization with overlap
     ethr =  1.27E-05,  avg # of iterations = 10.6

     negative rho (up, down):  5.913E-07 0.000E+00

     Adding external electric field

     Computed dipole along edir(3) : 
        Dipole               -1.6250 Ry au,         -4.1302 Debye
        Dipole field         -0.0013 Ry au, 

        E field amplitude [Ha a.u.]: -3.0000E-03
        Potential amp.       -0.2027 Ry
        Total length         60.4102 bohr


     total cpu time spent up to now is      584.3 secs

     total energy              =   -4146.60741214 Ry
     estimated scf accuracy    <       0.01515472 Ry

     iteration # 15     ecut=    80.00 Ry     beta= 0.70
     Davidson diagonalization with overlap
     ethr =  4.51E-06,  avg # of iterations =  3.0

     negative rho (up, down):  4.742E-07 0.000E+00

     Adding external electric field

     Computed dipole along edir(3) : 
        Dipole               -1.6538 Ry au,         -4.2036 Debye
        Dipole field         -0.0013 Ry au, 

        E field amplitude [Ha a.u.]: -3.0000E-03
        Potential amp.       -0.1999 Ry
        Total length         60.4102 bohr


     total cpu time spent up to now is      612.4 secs

     total energy              =   -4146.60788528 Ry
     estimated scf accuracy    <       0.00366849 Ry

     iteration # 16     ecut=    80.00 Ry     beta= 0.70
     Davidson diagonalization with overlap
     c_bands:  1 eigenvalues not converged
     ethr =  1.09E-06,  avg # of iterations =  6.2

     negative rho (up, down):  4.299E-07 0.000E+00

     Adding external electric field

     Computed dipole along edir(3) : 
        Dipole               -1.6567 Ry au,         -4.2109 Debye
        Dipole field         -0.0013 Ry au, 

        E field amplitude [Ha a.u.]: -3.0000E-03
        Potential amp.       -0.1996 Ry
        Total length         60.4102 bohr


     total cpu time spent up to now is      642.1 secs

     total energy              =   -4146.60783293 Ry
     estimated scf accuracy    <       0.00478976 Ry

     iteration # 17     ecut=    80.00 Ry     beta= 0.70
     Davidson diagonalization with overlap
     ethr =  1.09E-06,  avg # of iterations =  1.7

     negative rho (up, down):  2.821E-07 0.000E+00

     Adding external electric field

     Computed dipole along edir(3) : 
        Dipole               -1.6627 Ry au,         -4.2263 Debye
        Dipole field         -0.0014 Ry au, 

        E field amplitude [Ha a.u.]: -3.0000E-03
        Potential amp.       -0.1990 Ry
        Total length         60.4102 bohr


     total cpu time spent up to now is      668.5 secs

     total energy              =   -4146.60801964 Ry
     estimated scf accuracy    <       0.00230934 Ry

     iteration # 18     ecut=    80.00 Ry     beta= 0.70
     Davidson diagonalization with overlap
     ethr =  6.87E-07,  avg # of iterations =  2.5

     negative rho (up, down):  1.972E-07 0.000E+00

     Adding external electric field

     Computed dipole along edir(3) : 
        Dipole               -1.6618 Ry au,         -4.2239 Debye
        Dipole field         -0.0014 Ry au, 

        E field amplitude [Ha a.u.]: -3.0000E-03
        Potential amp.       -0.1991 Ry
        Total length         60.4102 bohr


     total cpu time spent up to now is      697.2 secs

     total energy              =   -4146.60803454 Ry
     estimated scf accuracy    <       0.00062392 Ry

     iteration # 19     ecut=    80.00 Ry     beta= 0.70
     Davidson diagonalization with overlap
     ethr =  1.86E-07,  avg # of iterations =  1.5

     negative rho (up, down):  1.496E-04 0.000E+00

     Adding external electric field

     Computed dipole along edir(3) : 
        Dipole               -1.6556 Ry au,         -4.2080 Debye
        Dipole field         -0.0013 Ry au, 

        E field amplitude [Ha a.u.]: -3.0000E-03
        Potential amp.       -0.1997 Ry
        Total length         60.4102 bohr


     total cpu time spent up to now is      723.3 secs

     total energy              =   -4146.60800636 Ry
     estimated scf accuracy    <       0.00053559 Ry

     iteration # 20     ecut=    80.00 Ry     beta= 0.70
     Davidson diagonalization with overlap
     ethr =  1.59E-07,  avg # of iterations =  1.2

     negative rho (up, down):  3.777E-04 0.000E+00

     Adding external electric field

     Computed dipole along edir(3) : 
        Dipole               -1.6585 Ry au,         -4.2155 Debye
        Dipole field         -0.0013 Ry au, 

        E field amplitude [Ha a.u.]: -3.0000E-03
        Potential amp.       -0.1994 Ry
        Total length         60.4102 bohr


     total cpu time spent up to now is      748.8 secs

     total energy              =   -4146.60802064 Ry
     estimated scf accuracy    <       0.00055137 Ry

     iteration # 21     ecut=    80.00 Ry     beta= 0.70
     Davidson diagonalization with overlap
     ethr =  1.59E-07,  avg # of iterations =  1.0

     negative rho (up, down):  2.372E-08 0.000E+00

     Adding external electric field

     Computed dipole along edir(3) : 
        Dipole               -1.6566 Ry au,         -4.2106 Debye
        Dipole field         -0.0013 Ry au, 

        E field amplitude [Ha a.u.]: -3.0000E-03
        Potential amp.       -0.1996 Ry
        Total length         60.4102 bohr


     total cpu time spent up to now is      773.5 secs

     total energy              =   -4146.60802734 Ry
     estimated scf accuracy    <       0.00035285 Ry

     iteration # 22     ecut=    80.00 Ry     beta= 0.70
     Davidson diagonalization with overlap
     ethr =  1.05E-07,  avg # of iterations =  1.5

     negative rho (up, down):  1.732E-05 0.000E+00

     Adding external electric field

     Computed dipole along edir(3) : 
        Dipole               -1.6566 Ry au,         -4.2106 Debye
        Dipole field         -0.0013 Ry au, 

        E field amplitude [Ha a.u.]: -3.0000E-03
        Potential amp.       -0.1996 Ry
        Total length         60.4102 bohr


     total cpu time spent up to now is      799.4 secs

     total energy              =   -4146.60802913 Ry
     estimated scf accuracy    <       0.00022402 Ry

     iteration # 23     ecut=    80.00 Ry     beta= 0.70
     Davidson diagonalization with overlap
     ethr =  6.67E-08,  avg # of iterations =  1.0

     negative rho (up, down):  1.128E-05 0.000E+00

     Adding external electric field

     Computed dipole along edir(3) : 
        Dipole               -1.6570 Ry au,         -4.2118 Debye
        Dipole field         -0.0013 Ry au, 

        E field amplitude [Ha a.u.]: -3.0000E-03
        Potential amp.       -0.1996 Ry
        Total length         60.4102 bohr


     total cpu time spent up to now is      823.9 secs

     total energy              =   -4146.60803120 Ry
     estimated scf accuracy    <       0.00020876 Ry

     iteration # 24     ecut=    80.00 Ry     beta= 0.70
     Davidson diagonalization with overlap
     ethr =  6.21E-08,  avg # of iterations =  1.0

     negative rho (up, down):  8.349E-06 0.000E+00

     Adding external electric field

     Computed dipole along edir(3) : 
        Dipole               -1.6566 Ry au,         -4.2107 Debye
        Dipole field         -0.0013 Ry au, 

        E field amplitude [Ha a.u.]: -3.0000E-03
        Potential amp.       -0.1996 Ry
        Total length         60.4102 bohr


     total cpu time spent up to now is      848.5 secs

     total energy              =   -4146.60803120 Ry
     estimated scf accuracy    <       0.00006229 Ry

     iteration # 25     ecut=    80.00 Ry     beta= 0.70
     Davidson diagonalization with overlap
     ethr =  1.85E-08,  avg # of iterations =  1.0

     Adding external electric field

     Computed dipole along edir(3) : 
        Dipole               -1.6568 Ry au,         -4.2111 Debye
        Dipole field         -0.0013 Ry au, 

        E field amplitude [Ha a.u.]: -3.0000E-03
        Potential amp.       -0.1996 Ry
        Total length         60.4102 bohr


     total cpu time spent up to now is      873.0 secs

     total energy              =   -4146.60803153 Ry
     estimated scf accuracy    <       0.00016959 Ry

     iteration # 26     ecut=    80.00 Ry     beta= 0.70
     Davidson diagonalization with overlap
     ethr =  1.85E-08,  avg # of iterations =  1.0

     Adding external electric field

     Computed dipole along edir(3) : 
        Dipole               -1.6567 Ry au,         -4.2110 Debye
        Dipole field         -0.0013 Ry au, 

        E field amplitude [Ha a.u.]: -3.0000E-03
        Potential amp.       -0.1996 Ry
        Total length         60.4102 bohr


     total cpu time spent up to now is      897.5 secs

     total energy              =   -4146.60803185 Ry
     estimated scf accuracy    <       0.00006449 Ry

     iteration # 27     ecut=    80.00 Ry     beta= 0.70
     Davidson diagonalization with overlap
     ethr =  1.85E-08,  avg # of iterations =  1.0

     Adding external electric field

     Computed dipole along edir(3) : 
        Dipole               -1.6567 Ry au,         -4.2110 Debye
        Dipole field         -0.0013 Ry au, 

        E field amplitude [Ha a.u.]: -3.0000E-03
        Potential amp.       -0.1996 Ry
        Total length         60.4102 bohr


     total cpu time spent up to now is      922.1 secs

     total energy              =   -4146.60803190 Ry
     estimated scf accuracy    <       0.00000559 Ry

     iteration # 28     ecut=    80.00 Ry     beta= 0.70
     Davidson diagonalization with overlap
     ethr =  1.66E-09,  avg # of iterations =  1.0

     Adding external electric field

     Computed dipole along edir(3) : 
        Dipole               -1.6567 Ry au,         -4.2110 Debye
        Dipole field         -0.0013 Ry au, 

        E field amplitude [Ha a.u.]: -3.0000E-03
        Potential amp.       -0.1996 Ry
        Total length         60.4102 bohr


     total cpu time spent up to now is      946.6 secs

     total energy              =   -4146.60803191 Ry
     estimated scf accuracy    <       0.00000077 Ry

     iteration # 29     ecut=    80.00 Ry     beta= 0.70
     Davidson diagonalization with overlap
     ethr =  2.29E-10,  avg # of iterations =  1.0

     Adding external electric field

     Computed dipole along edir(3) : 
        Dipole               -1.6567 Ry au,         -4.2110 Debye
        Dipole field         -0.0013 Ry au, 

        E field amplitude [Ha a.u.]: -3.0000E-03
        Potential amp.       -0.1996 Ry
        Total length         60.4102 bohr


     total cpu time spent up to now is      971.1 secs

     total energy              =   -4146.60803191 Ry
     estimated scf accuracy    <       0.00000018 Ry

     iteration # 30     ecut=    80.00 Ry     beta= 0.70
     Davidson diagonalization with overlap
     ethr =  5.50E-11,  avg # of iterations =  1.0

     Adding external electric field

     Computed dipole along edir(3) : 
        Dipole               -1.6567 Ry au,         -4.2110 Debye
        Dipole field         -0.0013 Ry au, 

        E field amplitude [Ha a.u.]: -3.0000E-03
        Potential amp.       -0.1996 Ry
        Total length         60.4102 bohr


     total cpu time spent up to now is      995.7 secs

     total energy              =   -4146.60803191 Ry
     estimated scf accuracy    <       0.00000012 Ry

     iteration # 31     ecut=    80.00 Ry     beta= 0.70
     Davidson diagonalization with overlap
     ethr =  3.43E-11,  avg # of iterations =  1.0

     Adding external electric field

     Computed dipole along edir(3) : 
        Dipole               -1.6567 Ry au,         -4.2110 Debye
        Dipole field         -0.0013 Ry au, 

        E field amplitude [Ha a.u.]: -3.0000E-03
        Potential amp.       -0.1996 Ry
        Total length         60.4102 bohr


     total cpu time spent up to now is     1020.2 secs

     total energy              =   -4146.60803191 Ry
     estimated scf accuracy    <       0.00000032 Ry

     iteration # 32     ecut=    80.00 Ry     beta= 0.70
     Davidson diagonalization with overlap
     ethr =  3.43E-11,  avg # of iterations =  1.0

     Adding external electric field

     Computed dipole along edir(3) : 
        Dipole               -1.6567 Ry au,         -4.2110 Debye
        Dipole field         -0.0013 Ry au, 

        E field amplitude [Ha a.u.]: -3.0000E-03
        Potential amp.       -0.1996 Ry
        Total length         60.4102 bohr


     total cpu time spent up to now is     1044.8 secs

     total energy              =   -4146.60803192 Ry
     estimated scf accuracy    <       0.00000002 Ry

     iteration # 33     ecut=    80.00 Ry     beta= 0.70
     Davidson diagonalization with overlap
     ethr =  7.24E-12,  avg # of iterations =  1.0

     Adding external electric field

     Computed dipole along edir(3) : 
        Dipole               -1.6567 Ry au,         -4.2110 Debye
        Dipole field         -0.0013 Ry au, 

        E field amplitude [Ha a.u.]: -3.0000E-03
        Potential amp.       -0.1996 Ry
        Total length         60.4102 bohr


     total cpu time spent up to now is     1069.3 secs

     total energy              =   -4146.60803192 Ry
     estimated scf accuracy    <       0.00000013 Ry

     iteration # 34     ecut=    80.00 Ry     beta= 0.70
     Davidson diagonalization with overlap
     ethr =  7.24E-12,  avg # of iterations =  1.0

     Adding external electric field

     Computed dipole along edir(3) : 
        Dipole               -1.6567 Ry au,         -4.2110 Debye
        Dipole field         -0.0013 Ry au, 

        E field amplitude [Ha a.u.]: -3.0000E-03
        Potential amp.       -0.1996 Ry
        Total length         60.4102 bohr


     total cpu time spent up to now is     1093.8 secs

     total energy              =   -4146.60803192 Ry
     estimated scf accuracy    <          2.8E-09 Ry

     iteration # 35     ecut=    80.00 Ry     beta= 0.70
     Davidson diagonalization with overlap
     ethr =  8.28E-13,  avg # of iterations =  1.0

     Adding external electric field

     Computed dipole along edir(3) : 
        Dipole               -1.6571 Ry au,         -4.2120 Debye
        Dipole field         -0.0013 Ry au, 

        E field amplitude [Ha a.u.]: -3.0000E-03
        Potential amp.       -0.1995 Ry
        Total length         60.4102 bohr


     total cpu time spent up to now is     1118.4 secs

     End of self-consistent calculation

          k = 0.0500 0.0866 0.0000 (186449 PWs)   bands (ev):

   -37.2250 -37.2250 -37.2250 -37.2250 -37.2250 -37.2243 -37.2243 -37.2243
   -37.0377 -37.0376 -37.0376 -37.0375 -37.0354 -37.0354 -37.0352 -37.0352
   -36.9778 -36.9774 -36.9774 -36.9774 -36.7159 -36.7153 -36.7153 -36.7153
   -36.7043 -36.7042 -36.7042 -36.7039 -36.7038 -36.7038 -36.7038 -36.7037
   -36.6824 -36.6824 -36.6824 -36.6824 -36.6823 -36.6813 -36.6813 -36.6813
   -36.5835 -36.5835 -36.5835 -36.5835 -36.5835 -36.5824 -36.5824 -36.5824
   -36.5413 -36.5413 -36.5413 -36.5410 -36.5410 -36.5410 -36.5409 -36.5409
   -36.5374 -36.5368 -36.5368 -36.5368 -16.6430 -16.6430 -16.6427 -16.6414
   -16.6411 -16.6272 -16.6272 -16.6272 -16.5114 -16.5087 -16.5087 -16.5087
   -16.5011 -16.5005 -16.5005 -16.4955 -16.4955 -16.4951 -16.4941 -16.4934
   -16.3204 -16.3203 -16.3203 -16.3064 -16.2728 -16.2727 -16.2727 -16.2631
   -16.2623 -16.2435 -16.2435 -16.2434 -16.2165 -16.2165 -16.2164 -16.2067
   -16.2064 -16.2006 -16.2005 -16.2005 -16.0486 -16.0483 -16.0483 -16.0056
   -15.9881 -15.9876 -15.9639 -15.9639 -15.9639 -15.9626 -15.9626 -15.9621
   -15.9270 -15.9269 -15.9269 -15.9142 -15.9141 -15.9141 -15.9140 -15.9139
   -13.5658 -12.8617 -12.1660 -12.1660 -12.1157 -11.8293 -11.8293 -11.8107
   -11.5043 -11.1807 -11.1804 -11.1804  -8.0113  -7.8356  -7.8189  -7.8189
    -7.4922  -7.4401  -7.4401  -6.5212  -6.5212  -6.5025  -6.1731  -4.3734
    -4.3679  -4.3679  -4.0891  -3.7881  -3.7195  -3.7195  -3.3883  -3.2543
    -3.2543  -3.0470  -3.0350  -3.0350  -2.9506  -2.9506  -2.9107  -2.5617
    -2.3930  -2.2650  -2.2650  -2.2553  -2.0961  -1.9953  -1.8813  -1.7447
    -1.6968  -1.6968  -1.0040  -0.9489  -0.9489  -0.4942  -0.3833  -0.3112
    -0.1121   0.3756   0.3756   0.4862   0.6297   0.6297   0.7253   1.3760
     1.5032   1.5032   1.6563   1.6706   1.6890   1.6890   2.1945   2.3778
     2.6583   2.7417   2.7417   2.7781   2.8950   3.1107   3.1958   3.3047
     3.3879   3.4189

          k = 0.0500 0.2021 0.0000 (186558 PWs)   bands (ev):

   -37.2250 -37.2250 -37.2250 -37.2250 -37.2249 -37.2243 -37.2243 -37.2243
   -37.0377 -37.0376 -37.0376 -37.0375 -37.0354 -37.0354 -37.0353 -37.0352
   -36.9778 -36.9774 -36.9774 -36.9774 -36.7158 -36.7153 -36.7153 -36.7153
   -36.7042 -36.7042 -36.7041 -36.7039 -36.7038 -36.7038 -36.7038 -36.7038
   -36.6824 -36.6824 -36.6824 -36.6823 -36.6823 -36.6814 -36.6814 -36.6814
   -36.5835 -36.5835 -36.5835 -36.5835 -36.5834 -36.5824 -36.5824 -36.5824
   -36.5413 -36.5413 -36.5413 -36.5410 -36.5410 -36.5410 -36.5409 -36.5409
   -36.5373 -36.5368 -36.5368 -36.5368 -16.6429 -16.6424 -16.6419 -16.6415
   -16.6402 -16.6281 -16.6279 -16.6279 -16.5112 -16.5088 -16.5087 -16.5087
   -16.5009 -16.5002 -16.5001 -16.4957 -16.4954 -16.4954 -16.4942 -16.4938
   -16.3193 -16.3191 -16.3188 -16.3064 -16.2734 -16.2731 -16.2728 -16.2646
   -16.2609 -16.2444 -16.2441 -16.2439 -16.2159 -16.2158 -16.2157 -16.2073
   -16.2063 -16.2014 -16.2013 -16.2012 -16.0477 -16.0470 -16.0461 -16.0093
   -15.9865 -15.9851 -15.9653 -15.9652 -15.9648 -15.9639 -15.9625 -15.9620
   -15.9266 -15.9264 -15.9263 -15.9150 -15.9149 -15.9146 -15.9142 -15.9140
   -13.5079 -12.8105 -12.3200 -12.2077 -12.0986 -11.8976 -11.8394 -11.7951
   -11.4794 -11.1810 -11.1772 -11.1769  -7.9639  -7.8132  -7.7733  -7.7247
    -7.4542  -7.3417  -7.2253  -6.5591  -6.5296  -6.4917  -6.1729  -4.4228
    -4.3829  -4.3827  -4.1825  -3.9441  -3.8468  -3.7280  -3.6629  -3.5217
    -3.2359  -3.0404  -3.0027  -2.9891  -2.9700  -2.8460  -2.8062  -2.7993
    -2.5609  -2.4214  -2.2926  -2.2867  -2.2727  -2.0506  -1.9741  -1.6847
    -1.5802  -1.4705  -1.1720  -1.0569  -0.9157  -0.7130  -0.4193   0.1241
     0.3352   0.4109   0.6670   0.6806   0.8223   0.8998   0.9855   1.2149
     1.2645   1.5581   1.7020   1.7286   1.7717   1.8131   1.8709   2.3847
     2.6725   2.7656   2.8624   2.9307   2.9337   2.9951   3.1132   3.2624
     3.3053   3.3345

          k = 0.0500 0.3175 0.0000 (186601 PWs)   bands (ev):

   -37.2250 -37.2250 -37.2249 -37.2249 -37.2249 -37.2244 -37.2244 -37.2243
   -37.0377 -37.0376 -37.0376 -37.0375 -37.0353 -37.0353 -37.0353 -37.0352
   -36.9778 -36.9775 -36.9774 -36.9774 -36.7158 -36.7154 -36.7153 -36.7153
   -36.7042 -36.7041 -36.7041 -36.7039 -36.7039 -36.7038 -36.7038 -36.7038
   -36.6824 -36.6824 -36.6823 -36.6822 -36.6822 -36.6815 -36.6814 -36.6814
   -36.5835 -36.5835 -36.5834 -36.5834 -36.5833 -36.5826 -36.5825 -36.5825
   -36.5413 -36.5412 -36.5412 -36.5410 -36.5410 -36.5410 -36.5410 -36.5409
   -36.5373 -36.5369 -36.5368 -36.5368 -16.6427 -16.6416 -16.6414 -16.6406
   -16.6388 -16.6295 -16.6290 -16.6290 -16.5108 -16.5090 -16.5087 -16.5086
   -16.5005 -16.4999 -16.4994 -16.4959 -16.4959 -16.4952 -16.4948 -16.4941
   -16.3176 -16.3173 -16.3164 -16.3067 -16.2742 -16.2738 -16.2728 -16.2668
   -16.2586 -16.2460 -16.2450 -16.2447 -16.2149 -16.2148 -16.2146 -16.2084
   -16.2060 -16.2028 -16.2025 -16.2022 -16.0463 -16.0452 -16.0423 -16.0148
   -15.9839 -15.9817 -15.9675 -15.9673 -15.9661 -15.9661 -15.9624 -15.9619
   -15.9258 -15.9256 -15.9251 -15.9165 -15.9160 -15.9154 -15.9144 -15.9141
   -13.4053 -12.7206 -12.5316 -12.2462 -12.0937 -12.0248 -11.8484 -11.7793
   -11.4373 -11.1973 -11.1725 -11.1719  -7.8820  -7.7728  -7.7111  -7.5911
    -7.3755  -7.2187  -6.9583  -6.5298  -6.4984  -6.4842  -6.1906  -4.5454
    -4.4297  -4.4166  -4.4158  -4.1212  -4.0271  -4.0085  -3.8342  -3.5665
    -3.5602  -3.1678  -2.9233  -2.9008  -2.8695  -2.8547  -2.7111  -2.6968
    -2.6903  -2.6716  -2.3207  -2.3195  -2.2671  -2.1595  -2.0639  -1.5914
    -1.4389  -1.3489  -1.2044  -1.1236  -1.0445  -0.8582  -0.4785   0.4710
     0.4787   0.4824   0.7370   0.7517   0.7846   1.2292   1.3944   1.4556
     1.4667   1.6541   1.7050   1.8405   1.8713   1.9171   2.0054   2.3294
     2.5500   2.7171   2.9760   2.9815   3.0109   3.0949   3.1558   3.1734
     3.1748   3.2665

          k = 0.0500 0.4330 0.0000 (186662 PWs)   bands (ev):

   -37.2250 -37.2250 -37.2249 -37.2248 -37.2248 -37.2245 -37.2244 -37.2244
   -37.0377 -37.0376 -37.0376 -37.0375 -37.0353 -37.0353 -37.0353 -37.0352
   -36.9777 -36.9775 -36.9774 -36.9774 -36.7157 -36.7155 -36.7153 -36.7153
   -36.7042 -36.7041 -36.7041 -36.7039 -36.7039 -36.7038 -36.7038 -36.7038
   -36.6824 -36.6824 -36.6822 -36.6821 -36.6820 -36.6816 -36.6815 -36.6815
   -36.5835 -36.5835 -36.5833 -36.5833 -36.5831 -36.5827 -36.5826 -36.5826
   -36.5413 -36.5412 -36.5412 -36.5410 -36.5410 -36.5410 -36.5410 -36.5410
   -36.5372 -36.5370 -36.5368 -36.5368 -16.6425 -16.6418 -16.6402 -16.6392
   -16.6369 -16.6314 -16.6303 -16.6303 -16.5104 -16.5093 -16.5087 -16.5086
   -16.5001 -16.4996 -16.4984 -16.4963 -16.4962 -16.4957 -16.4950 -16.4944
   -16.3160 -16.3155 -16.3135 -16.3076 -16.2750 -16.2746 -16.2725 -16.2692
   -16.2557 -16.2482 -16.2457 -16.2453 -16.2137 -16.2137 -16.2134 -16.2098
   -16.2056 -16.2042 -16.2038 -16.2033 -16.0450 -16.0435 -16.0372 -16.0211
   -15.9804 -15.9780 -15.9707 -15.9691 -15.9689 -15.9674 -15.9622 -15.9619
   -15.9249 -15.9248 -15.9235 -15.9185 -15.9171 -15.9163 -15.9144 -15.9143
   -13.2612 -12.7594 -12.5960 -12.2743 -12.1875 -12.0948 -11.8554 -11.7672
   -11.3821 -11.2353 -11.1687 -11.1669  -7.7726  -7.7300  -7.6534  -7.5320
    -7.2907  -7.1066  -6.7484  -6.5230  -6.4805  -6.2596  -6.1670  -4.8675
    -4.6768  -4.4654  -4.4349  -4.4033  -4.1866  -4.0786  -4.0554  -4.0022
    -3.4132  -3.0878  -3.0232  -2.8981  -2.8219  -2.7931  -2.7526  -2.6011
    -2.5998  -2.5743  -2.3913  -2.3640  -2.3368  -2.1591  -2.1205  -1.6735
    -1.4818  -1.4046  -1.2919  -1.1461  -0.7872  -0.6899  -0.5579   0.0915
     0.4055   0.4193   0.5853   0.8435   1.0182   1.0746   1.6798   1.7857
     1.8214   1.8868   1.9726   1.9922   2.1698   2.2008   2.2018   2.3908
     2.5855   2.5875   2.8101   2.8706   3.1633   3.2166   3.2959   3.3924
     3.4134   3.5984

          k = 0.0500 0.5485 0.0000 (186672 PWs)   bands (ev):

   -37.2250 -37.2250 -37.2248 -37.2248 -37.2247 -37.2246 -37.2244 -37.2244
   -37.0377 -37.0377 -37.0376 -37.0375 -37.0353 -37.0353 -37.0353 -37.0353
   -36.9776 -36.9776 -36.9774 -36.9774 -36.7156 -36.7156 -36.7153 -36.7153
   -36.7042 -36.7041 -36.7040 -36.7040 -36.7039 -36.7038 -36.7038 -36.7038
   -36.6824 -36.6824 -36.6822 -36.6821 -36.6819 -36.6818 -36.6816 -36.6816
   -36.5835 -36.5835 -36.5833 -36.5832 -36.5830 -36.5829 -36.5826 -36.5826
   -36.5412 -36.5412 -36.5411 -36.5411 -36.5410 -36.5410 -36.5410 -36.5410
   -36.5371 -36.5370 -36.5368 -36.5367 -16.6422 -16.6421 -16.6394 -16.6383
   -16.6347 -16.6336 -16.6311 -16.6310 -16.5099 -16.5097 -16.5087 -16.5086
   -16.4997 -16.4995 -16.4974 -16.4967 -16.4967 -16.4962 -16.4947 -16.4947
   -16.3152 -16.3146 -16.3107 -16.3094 -16.2754 -16.2751 -16.2718 -16.2711
   -16.2526 -16.2510 -16.2460 -16.2456 -16.2130 -16.2126 -16.2122 -16.2114
   -16.2052 -16.2048 -16.2046 -16.2044 -16.0443 -16.0427 -16.0311 -16.0278
   -15.9765 -15.9745 -15.9741 -15.9724 -15.9700 -15.9681 -15.9622 -15.9618
   -15.9244 -15.9243 -15.9216 -15.9206 -15.9177 -15.9168 -15.9144 -15.9144
   -13.0806 -12.9789 -12.4435 -12.3600 -12.2871 -12.0964 -11.8588 -11.7616
   -11.3205 -11.2899 -11.1669 -11.1643  -7.7059  -7.6510  -7.6232  -7.5952
    -7.2424  -7.0469  -6.5213  -6.5173  -6.4796  -6.4139  -5.6715  -5.4016
    -4.7303  -4.5661  -4.4856  -4.3738  -4.3191  -4.2914  -4.1528  -4.0619
    -3.2288  -3.1279  -3.0595  -3.0545  -2.7418  -2.7176  -2.6103  -2.5582
    -2.5442  -2.5237  -2.4500  -2.3971  -2.3961  -2.3067  -1.8801  -1.7774
    -1.7355  -1.5713  -1.1691  -1.0257  -0.6954  -0.6490  -0.2175  -0.1396
     0.0213   0.1938   0.7406   0.8366   0.9687   1.0212   1.9395   1.9403
     1.9895   1.9947   2.0660   2.1106   2.1176   2.1444   2.4148   2.4881
     2.5981   2.6202   3.0151   3.3156   3.3187   3.3243   3.4632   3.5491
     3.6807   3.6917

          k = 0.0500-0.4907 0.0000 (186681 PWs)   bands (ev):

   -37.2250 -37.2250 -37.2249 -37.2248 -37.2247 -37.2246 -37.2244 -37.2244
   -37.0377 -37.0377 -37.0376 -37.0375 -37.0353 -37.0353 -37.0353 -37.0352
   -36.9777 -36.9776 -36.9774 -36.9774 -36.7157 -36.7155 -36.7153 -36.7153
   -36.7042 -36.7041 -36.7040 -36.7040 -36.7039 -36.7038 -36.7038 -36.7038
   -36.6824 -36.6824 -36.6822 -36.6821 -36.6820 -36.6817 -36.6816 -36.6816
   -36.5835 -36.5835 -36.5833 -36.5832 -36.5830 -36.5828 -36.5826 -36.5826
   -36.5413 -36.5412 -36.5411 -36.5411 -36.5410 -36.5410 -36.5410 -36.5409
   -36.5371 -36.5370 -36.5368 -36.5367 -16.6423 -16.6419 -16.6397 -16.6387
   -16.6358 -16.6325 -16.6308 -16.6307 -16.5102 -16.5095 -16.5087 -16.5086
   -16.4997 -16.4997 -16.4978 -16.4968 -16.4963 -16.4960 -16.4949 -16.4944
   -16.3154 -16.3150 -16.3120 -16.3084 -16.2753 -16.2749 -16.2722 -16.2702
   -16.2541 -16.2496 -16.2459 -16.2455 -16.2132 -16.2129 -16.2129 -16.2106
   -16.2052 -16.2048 -16.2044 -16.2039 -16.0445 -16.0430 -16.0342 -16.0245
   -15.9784 -15.9761 -15.9726 -15.9705 -15.9697 -15.9679 -15.9622 -15.9618
   -15.9246 -15.9245 -15.9226 -15.9195 -15.9175 -15.9166 -15.9145 -15.9143
   -13.1750 -12.8713 -12.5227 -12.2828 -12.2739 -12.0958 -11.8577 -11.7635
   -11.3516 -11.2611 -11.1675 -11.1652  -7.7143  -7.7118  -7.6337  -7.5520
    -7.2594  -7.0678  -6.6370  -6.5195  -6.4798  -6.3252  -5.9302  -5.1300
    -4.7148  -4.5071  -4.4813  -4.4190  -4.2661  -4.1674  -4.1321  -4.0603
    -3.3250  -3.0667  -3.0581  -3.0055  -2.7733  -2.7466  -2.6868  -2.5727
    -2.5629  -2.4896  -2.4314  -2.4273  -2.3838  -2.2258  -2.0088  -1.7396
    -1.5766  -1.5376  -1.2182  -1.0726  -0.7416  -0.6023  -0.4580  -0.0553
     0.2433   0.2707   0.6565   0.9063   0.9416   1.0499   1.8424   1.8616
     1.9261   1.9423   2.0745   2.0906   2.1245   2.1729   2.3871   2.4989
     2.5733   2.6160   2.8244   3.0416   3.2694   3.2709   3.4211   3.4971
     3.5902   3.7093

          k = 0.0500-0.3753 0.0000 (186663 PWs)   bands (ev):

   -37.2250 -37.2250 -37.2249 -37.2249 -37.2248 -37.2244 -37.2244 -37.2244
   -37.0377 -37.0376 -37.0376 -37.0375 -37.0353 -37.0353 -37.0353 -37.0352
   -36.9777 -36.9775 -36.9774 -36.9774 -36.7157 -36.7154 -36.7153 -36.7153
   -36.7042 -36.7041 -36.7041 -36.7039 -36.7039 -36.7038 -36.7038 -36.7038
   -36.6824 -36.6824 -36.6822 -36.6822 -36.6821 -36.6815 -36.6815 -36.6815
   -36.5835 -36.5835 -36.5834 -36.5833 -36.5832 -36.5826 -36.5825 -36.5825
   -36.5413 -36.5412 -36.5412 -36.5410 -36.5410 -36.5410 -36.5410 -36.5409
   -36.5372 -36.5369 -36.5368 -36.5368 -16.6426 -16.6417 -16.6407 -16.6399
   -16.6379 -16.6304 -16.6297 -16.6296 -16.5106 -16.5091 -16.5087 -16.5086
   -16.5001 -16.4999 -16.4989 -16.4965 -16.4957 -16.4954 -16.4952 -16.4941
   -16.3167 -16.3164 -16.3150 -16.3071 -16.2746 -16.2742 -16.2727 -16.2680
   -16.2572 -16.2470 -16.2453 -16.2450 -16.2143 -16.2142 -16.2140 -16.2091
   -16.2058 -16.2035 -16.2032 -16.2028 -16.0456 -16.0443 -16.0399 -16.0179
   -15.9822 -15.9799 -15.9690 -15.9682 -15.9674 -15.9668 -15.9623 -15.9619
   -15.9253 -15.9253 -15.9244 -15.9175 -15.9166 -15.9158 -15.9144 -15.9142
   -13.3381 -12.6623 -12.6452 -12.2619 -12.1034 -12.0939 -11.8523 -11.7726
   -11.4110 -11.2137 -11.1704 -11.1692  -7.8300  -7.7503  -7.6802  -7.5451
    -7.3312  -7.1588  -6.8506  -6.5270  -6.4819  -6.3650  -6.2162  -4.6287
    -4.6171  -4.4414  -4.4308  -4.2688  -4.1082  -4.0427  -3.9746  -3.8001
    -3.4920  -3.1240  -2.9598  -2.8731  -2.8478  -2.8120  -2.7849  -2.6462
    -2.6460  -2.6420  -2.3535  -2.3418  -2.2447  -2.2090  -2.1060  -1.6074
    -1.4280  -1.3548  -1.2256  -1.2104  -0.9197  -0.8200  -0.5156   0.2765
     0.5048   0.5265   0.5752   0.7860   0.9405   1.2143   1.4692   1.6675
     1.7160   1.7438   1.8566   1.8842   2.0252   2.1026   2.1044   2.2727
     2.5508   2.6483   2.9011   2.9131   3.0560   3.1720   3.1824   3.2586
     3.2753   3.4207

          k = 0.0500-0.2598 0.0000 (186566 PWs)   bands (ev):

   -37.2250 -37.2250 -37.2249 -37.2249 -37.2249 -37.2244 -37.2243 -37.2243
   -37.0377 -37.0376 -37.0376 -37.0375 -37.0354 -37.0354 -37.0353 -37.0352
   -36.9778 -36.9775 -36.9774 -36.9774 -36.7158 -36.7154 -36.7153 -36.7153
   -36.7042 -36.7041 -36.7041 -36.7039 -36.7039 -36.7038 -36.7038 -36.7038
   -36.6824 -36.6824 -36.6823 -36.6823 -36.6822 -36.6814 -36.6814 -36.6814
   -36.5835 -36.5835 -36.5835 -36.5834 -36.5833 -36.5825 -36.5825 -36.5825
   -36.5413 -36.5413 -36.5412 -36.5410 -36.5410 -36.5410 -36.5409 -36.5409
   -36.5373 -36.5368 -36.5368 -36.5368 -16.6428 -16.6419 -16.6415 -16.6413
   -16.6396 -16.6287 -16.6285 -16.6284 -16.5110 -16.5089 -16.5087 -16.5086
   -16.5006 -16.5002 -16.4997 -16.4961 -16.4954 -16.4953 -16.4947 -16.4937
   -16.3184 -16.3182 -16.3177 -16.3065 -16.2737 -16.2735 -16.2728 -16.2657
   -16.2598 -16.2451 -16.2445 -16.2443 -16.2155 -16.2153 -16.2152 -16.2078
   -16.2062 -16.2020 -16.2019 -16.2016 -16.0471 -16.0461 -16.0444 -16.0119
   -15.9853 -15.9835 -15.9663 -15.9663 -15.9655 -15.9648 -15.9624 -15.9619
   -15.9261 -15.9261 -15.9257 -15.9157 -15.9155 -15.9149 -15.9143 -15.9140
   -13.4620 -12.7702 -12.4217 -12.2279 -12.0950 -11.9550 -11.8441 -11.7870
   -11.4603 -11.1865 -11.1747 -11.1746  -7.9270  -7.7944  -7.7432  -7.6569
    -7.4180  -7.2814  -7.0877  -6.5550  -6.5309  -6.4875  -6.1778  -4.4759
    -4.3979  -4.3971  -4.2814  -4.0163  -3.9371  -3.8988  -3.6784  -3.6173
    -3.3092  -3.2074  -2.9659  -2.9500  -2.9236  -2.7778  -2.7475  -2.7457
    -2.7108  -2.5561  -2.3022  -2.2923  -2.2923  -2.0909  -2.0237  -1.6342
    -1.5059  -1.3092  -1.2716  -1.1336  -0.8900  -0.8714  -0.4452   0.3318
     0.4405   0.5737   0.6887   0.6975   0.8444   1.0299   1.2053   1.2477
     1.4328   1.5867   1.6012   1.7825   1.8228   1.8354   1.9042   2.3675
     2.6028   2.7587   2.9392   2.9406   3.0231   3.0381   3.1137   3.1867
     3.2175   3.2397

          k = 0.0500-0.1443 0.0000 (186480 PWs)   bands (ev):

   -37.2250 -37.2250 -37.2250 -37.2250 -37.2250 -37.2243 -37.2243 -37.2243
   -37.0377 -37.0376 -37.0376 -37.0375 -37.0354 -37.0354 -37.0352 -37.0352
   -36.9778 -36.9774 -36.9774 -36.9774 -36.7158 -36.7153 -36.7153 -36.7153
   -36.7042 -36.7042 -36.7041 -36.7039 -36.7039 -36.7038 -36.7038 -36.7037
   -36.6824 -36.6824 -36.6824 -36.6824 -36.6823 -36.6814 -36.6813 -36.6813
   -36.5835 -36.5835 -36.5835 -36.5835 -36.5834 -36.5824 -36.5824 -36.5824
   -36.5413 -36.5413 -36.5413 -36.5410 -36.5410 -36.5410 -36.5409 -36.5409
   -36.5374 -36.5368 -36.5368 -36.5368 -16.6430 -16.6427 -16.6425 -16.6414
   -16.6408 -16.6276 -16.6275 -16.6274 -16.5113 -16.5087 -16.5087 -16.5086
   -16.5009 -16.5004 -16.5003 -16.4958 -16.4955 -16.4951 -16.4943 -16.4934
   -16.3199 -16.3198 -16.3197 -16.3064 -16.2731 -16.2729 -16.2727 -16.2638
   -16.2617 -16.2439 -16.2438 -16.2437 -16.2162 -16.2162 -16.2161 -16.2069
   -16.2064 -16.2009 -16.2008 -16.2008 -16.0483 -16.0477 -16.0474 -16.0072
   -15.9875 -15.9866 -15.9645 -15.9644 -15.9643 -15.9631 -15.9625 -15.9620
   -15.9268 -15.9268 -15.9267 -15.9146 -15.9145 -15.9143 -15.9142 -15.9139
   -13.5425 -12.8412 -12.2323 -12.1867 -12.1054 -11.8554 -11.8344 -11.8032
   -11.4942 -11.1796 -11.1793 -11.1788  -7.9922  -7.8272  -7.7992  -7.7810
    -7.4797  -7.3959  -7.3481  -6.5414  -6.5263  -6.4967  -6.1722  -4.3897
    -4.3739  -4.3728  -4.1223  -3.8649  -3.7695  -3.6969  -3.5522  -3.3755
    -3.2504  -3.0287  -3.0196  -3.0077  -2.9063  -2.8748  -2.8523  -2.7809
    -2.4558  -2.2801  -2.2743  -2.2607  -2.2470  -2.0293  -1.9224  -1.7233
    -1.6458  -1.6020  -1.0811  -0.9896  -0.9356  -0.5838  -0.3972  -0.1082
     0.0959   0.3894   0.4984   0.6446   0.6662   0.7407   0.8738   1.2291
     1.3992   1.5252   1.6858   1.6926   1.7229   1.7399   2.0359   2.3855
     2.6891   2.7548   2.7923   2.8463   2.9251   3.0235   3.1504   3.3156
     3.3567   3.3832

          k = 0.0500-0.0289 0.0000 (186385 PWs)   bands (ev):

   -37.2250 -37.2250 -37.2250 -37.2250 -37.2250 -37.2243 -37.2243 -37.2243
   -37.0377 -37.0376 -37.0376 -37.0375 -37.0354 -37.0354 -37.0352 -37.0352
   -36.9778 -36.9774 -36.9774 -36.9774 -36.7159 -36.7153 -36.7153 -36.7153
   -36.7043 -36.7042 -36.7042 -36.7039 -36.7038 -36.7038 -36.7038 -36.7037
   -36.6824 -36.6824 -36.6824 -36.6824 -36.6824 -36.6813 -36.6813 -36.6813
   -36.5835 -36.5835 -36.5835 -36.5835 -36.5835 -36.5824 -36.5824 -36.5824
   -36.5413 -36.5413 -36.5413 -36.5410 -36.5410 -36.5410 -36.5409 -36.5409
   -36.5374 -36.5368 -36.5368 -36.5368 -16.6430 -16.6430 -16.6430 -16.6414
   -16.6413 -16.6271 -16.6270 -16.6270 -16.5115 -16.5087 -16.5087 -16.5087
   -16.5011 -16.5005 -16.5005 -16.4956 -16.4956 -16.4950 -16.4941 -16.4933
   -16.3206 -16.3206 -16.3206 -16.3064 -16.2727 -16.2727 -16.2727 -16.2629
   -16.2625 -16.2434 -16.2434 -16.2434 -16.2166 -16.2166 -16.2166 -16.2065
   -16.2065 -16.2004 -16.2004 -16.2004 -16.0488 -16.0488 -16.0486 -16.0047
   -15.9884 -15.9883 -15.9636 -15.9636 -15.9636 -15.9625 -15.9623 -15.9623
   -15.9271 -15.9271 -15.9271 -15.9141 -15.9141 -15.9140 -15.9139 -15.9137
   -13.5775 -12.8721 -12.1466 -12.1296 -12.1296 -11.8237 -11.8176 -11.8176
   -11.5093 -11.1814 -11.1814 -11.1812  -8.0209  -7.8372  -7.8372  -7.8318
    -7.4896  -7.4896  -7.4721  -6.5152  -6.5087  -6.5087  -6.1739  -4.3663
    -4.3663  -4.3657  -4.0745  -3.7308  -3.7308  -3.7057  -3.2535  -3.2535
    -3.1935  -3.0506  -3.0506  -3.0315  -3.0175  -2.9731  -2.9731  -2.4284
    -2.3634  -2.2585  -2.2550  -2.2550  -2.0589  -1.9154  -1.8588  -1.7471
    -1.7471  -1.7311  -0.9557  -0.9557  -0.9344  -0.4915  -0.3938  -0.3718
    -0.2434   0.3306   0.3688   0.3688   0.5885   0.6222   0.6222   1.4920
     1.4920   1.5393   1.6390   1.6631   1.6631   1.6688   2.2984   2.3719
     2.6204   2.7206   2.7337   2.7337   2.8772   3.1659   3.2112   3.3159
     3.3599   3.3965

          k = 0.1500 0.1443 0.0000 (186558 PWs)   bands (ev):

   -37.2250 -37.2250 -37.2250 -37.2250 -37.2249 -37.2243 -37.2243 -37.2243
   -37.0377 -37.0376 -37.0376 -37.0375 -37.0354 -37.0354 -37.0353 -37.0352
   -36.9778 -36.9774 -36.9774 -36.9774 -36.7158 -36.7153 -36.7153 -36.7153
   -36.7042 -36.7042 -36.7041 -36.7039 -36.7038 -36.7038 -36.7038 -36.7038
   -36.6824 -36.6824 -36.6824 -36.6823 -36.6823 -36.6814 -36.6814 -36.6814
   -36.5835 -36.5835 -36.5835 -36.5835 -36.5834 -36.5824 -36.5824 -36.5824
   -36.5413 -36.5413 -36.5413 -36.5410 -36.5410 -36.5410 -36.5409 -36.5409
   -36.5373 -36.5368 -36.5368 -36.5368 -16.6429 -16.6424 -16.6419 -16.6415
   -16.6402 -16.6281 -16.6279 -16.6279 -16.5112 -16.5088 -16.5087 -16.5087
   -16.5009 -16.5002 -16.5001 -16.4957 -16.4954 -16.4954 -16.4942 -16.4938
   -16.3193 -16.3191 -16.3188 -16.3064 -16.2734 -16.2731 -16.2728 -16.2646
   -16.2609 -16.2444 -16.2441 -16.2439 -16.2159 -16.2158 -16.2157 -16.2073
   -16.2063 -16.2014 -16.2013 -16.2012 -16.0477 -16.0470 -16.0461 -16.0093
   -15.9865 -15.9851 -15.9653 -15.9652 -15.9648 -15.9639 -15.9625 -15.9620
   -15.9266 -15.9264 -15.9263 -15.9150 -15.9149 -15.9146 -15.9142 -15.9140
   -13.5079 -12.8105 -12.3200 -12.2077 -12.0986 -11.8976 -11.8394 -11.7951
   -11.4794 -11.1810 -11.1772 -11.1769  -7.9639  -7.8132  -7.7733  -7.7247
    -7.4542  -7.3417  -7.2253  -6.5591  -6.5296  -6.4917  -6.1729  -4.4228
    -4.3829  -4.3827  -4.1825  -3.9441  -3.8468  -3.7280  -3.6629  -3.5217
    -3.2359  -3.0404  -3.0027  -2.9891  -2.9700  -2.8460  -2.8062  -2.7993
    -2.5609  -2.4214  -2.2926  -2.2867  -2.2727  -2.0506  -1.9741  -1.6847
    -1.5802  -1.4705  -1.1720  -1.0569  -0.9157  -0.7130  -0.4193   0.1241
     0.3352   0.4109   0.6670   0.6806   0.8223   0.8998   0.9855   1.2149
     1.2645   1.5581   1.7020   1.7286   1.7717   1.8131   1.8709   2.3847
     2.6725   2.7656   2.8624   2.9307   2.9337   2.9951   3.1132   3.2624
     3.3054   3.3348

          k = 0.1500 0.2598 0.0000 (186586 PWs)   bands (ev):

   -37.2250 -37.2250 -37.2250 -37.2249 -37.2249 -37.2244 -37.2244 -37.2243
   -37.0377 -37.0376 -37.0376 -37.0375 -37.0353 -37.0353 -37.0353 -37.0352
   -36.9778 -36.9775 -36.9774 -36.9774 -36.7158 -36.7154 -36.7154 -36.7153
   -36.7042 -36.7041 -36.7041 -36.7039 -36.7038 -36.7038 -36.7038 -36.7038
   -36.6824 -36.6824 -36.6824 -36.6822 -36.6822 -36.6814 -36.6814 -36.6814
   -36.5835 -36.5835 -36.5835 -36.5834 -36.5833 -36.5825 -36.5825 -36.5825
   -36.5413 -36.5412 -36.5412 -36.5410 -36.5410 -36.5410 -36.5410 -36.5410
   -36.5373 -36.5368 -36.5368 -36.5367 -16.6423 -16.6423 -16.6415 -16.6406
   -16.6392 -16.6290 -16.6290 -16.6287 -16.5109 -16.5089 -16.5089 -16.5086
   -16.5006 -16.4997 -16.4997 -16.4959 -16.4955 -16.4955 -16.4944 -16.4943
   -16.3180 -16.3172 -16.3172 -16.3066 -16.2741 -16.2732 -16.2732 -16.2664
   -16.2591 -16.2453 -16.2453 -16.2444 -16.2151 -16.2151 -16.2147 -16.2082
   -16.2061 -16.2026 -16.2021 -16.2021 -16.0470 -16.0441 -16.0441 -16.0136
   -15.9848 -15.9821 -15.9675 -15.9675 -15.9653 -15.9637 -15.9637 -15.9619
   -15.9259 -15.9256 -15.9256 -15.9162 -15.9160 -15.9147 -15.9147 -15.9141
   -13.4279 -12.7403 -12.3957 -12.3957 -12.0234 -11.9365 -11.9365 -11.7606
   -11.4464 -11.1825 -11.1825 -11.1751  -7.8998  -7.8032  -7.6533  -7.6533
    -7.4606  -7.0855  -7.0855  -6.5487  -6.5487  -6.4608  -6.1842  -4.5836
    -4.3868  -4.3868  -4.3638  -4.1388  -4.0022  -3.7896  -3.7896  -3.4587
    -3.4428  -3.4428  -2.9478  -2.8993  -2.8993  -2.8561  -2.7236  -2.7212
    -2.7212  -2.5564  -2.2975  -2.2938  -2.2938  -2.2233  -2.0259  -1.6661
    -1.3865  -1.2956  -1.2956  -1.0004  -1.0004  -0.9533  -0.4924   0.4511
     0.4907   0.7177   0.7177   0.7395   0.9618   0.9618   1.3461   1.3461
     1.4571   1.4952   1.7024   1.7780   1.7994   1.9381   1.9381   2.3371
     2.5798   2.8458   2.8458   2.9148   3.0037   3.0523   3.1021   3.1606
     3.1606   3.2611

          k = 0.1500 0.3753 0.0000 (186604 PWs)   bands (ev):

   -37.2250 -37.2250 -37.2249 -37.2248 -37.2248 -37.2244 -37.2244 -37.2244
   -37.0377 -37.0376 -37.0376 -37.0375 -37.0353 -37.0353 -37.0353 -37.0352
   -36.9777 -36.9775 -36.9775 -36.9774 -36.7157 -36.7154 -36.7154 -36.7153
   -36.7042 -36.7041 -36.7041 -36.7039 -36.7038 -36.7038 -36.7038 -36.7038
   -36.6824 -36.6824 -36.6823 -36.6821 -36.6821 -36.6816 -36.6815 -36.6815
   -36.5835 -36.5835 -36.5834 -36.5832 -36.5832 -36.5826 -36.5826 -36.5826
   -36.5413 -36.5412 -36.5412 -36.5410 -36.5410 -36.5410 -36.5410 -36.5410
   -36.5372 -36.5369 -36.5368 -36.5367 -16.6421 -16.6416 -16.6414 -16.6389
   -16.6376 -16.6306 -16.6302 -16.6300 -16.5105 -16.5091 -16.5089 -16.5086
   -16.5003 -16.4994 -16.4990 -16.4965 -16.4956 -16.4952 -16.4952 -16.4945
   -16.3166 -16.3153 -16.3147 -16.3072 -16.2750 -16.2739 -16.2731 -16.2686
   -16.2566 -16.2470 -16.2461 -16.2450 -16.2141 -16.2141 -16.2134 -16.2093
   -16.2058 -16.2042 -16.2032 -16.2031 -16.0461 -16.0420 -16.0399 -16.0191
   -15.9823 -15.9783 -15.9704 -15.9699 -15.9659 -15.9658 -15.9636 -15.9621
   -15.9250 -15.9248 -15.9243 -15.9178 -15.9173 -15.9153 -15.9147 -15.9143
   -13.3049 -12.6335 -12.6174 -12.4525 -12.0821 -11.9695 -11.9672 -11.7325
   -11.3983 -11.2078 -11.1839 -11.1731  -7.8048  -7.7810  -7.5872  -7.5408
    -7.4286  -6.9591  -6.8495  -6.5071  -6.4404  -6.3793  -6.2309  -4.7786
    -4.7159  -4.4720  -4.4075  -4.3666  -4.0081  -3.9850  -3.8780  -3.7128
    -3.6686  -3.3170  -3.0407  -2.8662  -2.8164  -2.8033  -2.7817  -2.6418
    -2.6343  -2.6162  -2.4579  -2.3540  -2.2802  -2.2020  -2.0755  -1.7458
    -1.4216  -1.2685  -1.2176  -1.0167  -0.9736  -0.8590  -0.5836   0.0024
     0.6282   0.7845   0.8566   1.0616   1.1173   1.2042   1.2971   1.4723
     1.5337   1.7834   1.8232   1.9231   2.0949   2.1266   2.2292   2.3646
     2.5191   2.7119   2.8348   2.9041   2.9114   3.1489   3.1605   3.1634
     3.2569   3.6702

          k = 0.1500 0.4907 0.0000 (186601 PWs)   bands (ev):

   -37.2250 -37.2250 -37.2249 -37.2247 -37.2247 -37.2246 -37.2245 -37.2244
   -37.0377 -37.0376 -37.0376 -37.0375 -37.0353 -37.0353 -37.0353 -37.0353
   -36.9777 -36.9776 -36.9775 -36.9774 -36.7156 -36.7155 -36.7154 -36.7152
   -36.7042 -36.7041 -36.7041 -36.7039 -36.7039 -36.7038 -36.7038 -36.7038
   -36.6824 -36.6824 -36.6822 -36.6820 -36.6819 -36.6817 -36.6816 -36.6816
   -36.5835 -36.5835 -36.5834 -36.5831 -36.5830 -36.5828 -36.5827 -36.5827
   -36.5413 -36.5412 -36.5412 -36.5411 -36.5410 -36.5410 -36.5410 -36.5410
   -36.5371 -36.5370 -36.5369 -36.5367 -16.6420 -16.6418 -16.6405 -16.6374
   -16.6357 -16.6326 -16.6313 -16.6312 -16.5101 -16.5094 -16.5089 -16.5085
   -16.4998 -16.4992 -16.4981 -16.4971 -16.4962 -16.4957 -16.4949 -16.4947
   -16.3155 -16.3139 -16.3119 -16.3085 -16.2756 -16.2745 -16.2727 -16.2707
   -16.2536 -16.2494 -16.2468 -16.2455 -16.2132 -16.2128 -16.2121 -16.2107
   -16.2057 -16.2053 -16.2042 -16.2041 -16.0453 -16.0404 -16.0345 -16.0253
   -15.9792 -15.9743 -15.9739 -15.9717 -15.9688 -15.9663 -15.9635 -15.9622
   -15.9241 -15.9240 -15.9227 -15.9198 -15.9185 -15.9159 -15.9147 -15.9145
   -13.1430 -12.8416 -12.4955 -12.4855 -12.2500 -11.9856 -11.9402 -11.7143
   -11.3406 -11.2531 -11.1849 -11.1716  -7.7609  -7.6898  -7.5452  -7.5394
    -7.3903  -6.8760  -6.6484  -6.4592  -6.4315  -6.3463  -5.9661  -5.1987
    -4.8981  -4.7064  -4.4001  -4.3068  -4.1932  -4.1432  -3.9885  -3.9483
    -3.4836  -3.1704  -3.1637  -2.9977  -2.8076  -2.7792  -2.7383  -2.6665
    -2.5798  -2.5666  -2.4357  -2.4068  -2.2673  -2.1749  -2.0100  -1.9158
    -1.5975  -1.3255  -1.2701  -0.8515  -0.8474  -0.6866  -0.4368  -0.3551
     0.2868   0.6065   0.8887   1.0826   1.1871   1.2961   1.6361   1.7321
     1.8207   1.9614   2.0590   2.0683   2.1025   2.1705   2.2382   2.5213
     2.6206   2.6467   2.7352   3.0983   3.2377   3.2991   3.3504   3.3711
     3.4684   3.8136

          k = 0.1500 0.6062 0.0000 (186657 PWs)   bands (ev):

   -37.2250 -37.2250 -37.2249 -37.2247 -37.2247 -37.2246 -37.2245 -37.2245
   -37.0377 -37.0377 -37.0376 -37.0375 -37.0353 -37.0353 -37.0353 -37.0353
   -36.9776 -36.9776 -36.9775 -36.9774 -36.7156 -36.7155 -36.7154 -36.7152
   -36.7042 -36.7041 -36.7040 -36.7040 -36.7039 -36.7039 -36.7038 -36.7038
   -36.6824 -36.6824 -36.6822 -36.6820 -36.6819 -36.6818 -36.6816 -36.6816
   -36.5835 -36.5835 -36.5834 -36.5831 -36.5829 -36.5829 -36.5827 -36.5827
   -36.5412 -36.5412 -36.5411 -36.5411 -36.5411 -36.5410 -36.5410 -36.5409
   -36.5371 -36.5370 -36.5369 -36.5367 -16.6419 -16.6418 -16.6403 -16.6370
   -16.6346 -16.6336 -16.6317 -16.6315 -16.5099 -16.5096 -16.5089 -16.5085
   -16.4995 -16.4992 -16.4974 -16.4973 -16.4971 -16.4957 -16.4950 -16.4946
   -16.3152 -16.3136 -16.3106 -16.3095 -16.2757 -16.2746 -16.2722 -16.2716
   -16.2521 -16.2507 -16.2469 -16.2456 -16.2130 -16.2121 -16.2117 -16.2114
   -16.2061 -16.2050 -16.2046 -16.2045 -16.0451 -16.0401 -16.0315 -16.0284
   -15.9774 -15.9757 -15.9724 -15.9721 -15.9705 -15.9664 -15.9634 -15.9622
   -15.9240 -15.9237 -15.9217 -15.9208 -15.9189 -15.9160 -15.9147 -15.9146
   -13.0492 -12.9484 -12.4923 -12.4173 -12.3349 -11.9895 -11.9344 -11.7104
   -11.3104 -11.2808 -11.1851 -11.1713  -7.7560  -7.6313  -7.5786  -7.5365
    -7.3802  -6.8580  -6.5388  -6.4465  -6.4348  -6.4301  -5.7178  -5.4591
    -4.9187  -4.7615  -4.3643  -4.2970  -4.2683  -4.1906  -4.0146  -3.9831
    -3.3740  -3.2615  -3.1065  -3.0558  -2.7917  -2.7508  -2.7448  -2.7261
    -2.5744  -2.5474  -2.4121  -2.3375  -2.2650  -2.2486  -1.9632  -1.8875
    -1.7504  -1.3556  -1.2129  -0.8030  -0.7944  -0.7393  -0.4514  -0.1963
     0.0483   0.5373   0.9534   1.0210   1.2464   1.2889   1.7238   1.7983
     1.8798   2.0046   2.0617   2.1152   2.1157   2.1222   2.3310   2.5026
     2.6577   2.6602   2.7841   3.2141   3.2563   3.2651   3.5022   3.5949
     3.6347   3.6772

          k = 0.1500-0.4330 0.0000 (186606 PWs)   bands (ev):

   -37.2250 -37.2250 -37.2249 -37.2248 -37.2248 -37.2245 -37.2244 -37.2244
   -37.0377 -37.0377 -37.0376 -37.0375 -37.0354 -37.0353 -37.0353 -37.0352
   -36.9777 -36.9775 -36.9775 -36.9774 -36.7157 -36.7155 -36.7154 -36.7152
   -36.7042 -36.7041 -36.7040 -36.7040 -36.7039 -36.7039 -36.7038 -36.7038
   -36.6824 -36.6824 -36.6823 -36.6821 -36.6820 -36.6816 -36.6816 -36.6815
   -36.5835 -36.5835 -36.5834 -36.5832 -36.5831 -36.5827 -36.5826 -36.5826
   -36.5412 -36.5412 -36.5412 -36.5411 -36.5411 -36.5410 -36.5410 -36.5409
   -36.5372 -36.5369 -36.5369 -36.5367 -16.6421 -16.6417 -16.6409 -16.6382
   -16.6367 -16.6316 -16.6308 -16.6307 -16.5103 -16.5092 -16.5089 -16.5085
   -16.4996 -16.4995 -16.4983 -16.4972 -16.4961 -16.4954 -16.4953 -16.4942
   -16.3159 -16.3145 -16.3133 -16.3077 -16.2753 -16.2742 -16.2730 -16.2698
   -16.2551 -16.2481 -16.2465 -16.2453 -16.2136 -16.2135 -16.2127 -16.2100
   -16.2056 -16.2050 -16.2038 -16.2036 -16.0456 -16.0411 -16.0373 -16.0222
   -15.9808 -15.9763 -15.9722 -15.9709 -15.9672 -15.9661 -15.9635 -15.9621
   -15.9244 -15.9244 -15.9235 -15.9188 -15.9180 -15.9156 -15.9147 -15.9144
   -13.2285 -12.7306 -12.5679 -12.4722 -12.1649 -11.9781 -11.9518 -11.7219
   -11.3702 -11.2283 -11.1845 -11.1723  -7.7697  -7.7487  -7.5624  -7.5240
    -7.4077  -6.9106  -6.7526  -6.4813  -6.4347  -6.2782  -6.1925  -4.9471
    -4.8514  -4.6065  -4.4115  -4.3422  -4.0733  -4.0526  -3.9979  -3.8410
    -3.5831  -3.2433  -3.0978  -2.9018  -2.8205  -2.8084  -2.7643  -2.6033
    -2.5988  -2.5681  -2.5329  -2.3856  -2.2726  -2.1175  -2.1153  -1.8379
    -1.4361  -1.3505  -1.2720  -0.9318  -0.9028  -0.6646  -0.6326  -0.1950
     0.4970   0.7253   0.8317   1.1230   1.1307   1.2480   1.5238   1.5504
     1.7988   1.8191   1.9006   2.0345   2.1420   2.1677   2.1794   2.5244
     2.5618   2.6569   2.7730   2.9793   3.0403   3.1999   3.2323   3.2533
     3.3560   3.7317

          k = 0.1500-0.3175 0.0000 (186613 PWs)   bands (ev):

   -37.2250 -37.2250 -37.2250 -37.2249 -37.2248 -37.2244 -37.2244 -37.2244
   -37.0377 -37.0376 -37.0376 -37.0375 -37.0354 -37.0354 -37.0352 -37.0352
   -36.9777 -36.9775 -36.9775 -36.9774 -36.7158 -36.7154 -36.7154 -36.7153
   -36.7042 -36.7041 -36.7041 -36.7039 -36.7039 -36.7039 -36.7038 -36.7038
   -36.6824 -36.6824 -36.6823 -36.6822 -36.6822 -36.6815 -36.6815 -36.6814
   -36.5835 -36.5835 -36.5835 -36.5833 -36.5832 -36.5826 -36.5825 -36.5825
   -36.5413 -36.5412 -36.5412 -36.5410 -36.5410 -36.5410 -36.5409 -36.5409
   -36.5373 -36.5369 -36.5368 -36.5367 -16.6422 -16.6418 -16.6416 -16.6398
   -16.6384 -16.6298 -16.6296 -16.6293 -16.5107 -16.5090 -16.5089 -16.5085
   -16.5000 -16.4999 -16.4992 -16.4967 -16.4955 -16.4954 -16.4951 -16.4938
   -16.3173 -16.3163 -16.3160 -16.3068 -16.2745 -16.2735 -16.2732 -16.2675
   -16.2579 -16.2461 -16.2457 -16.2448 -16.2146 -16.2146 -16.2141 -16.2087
   -16.2060 -16.2033 -16.2027 -16.2026 -16.0465 -16.0430 -16.0422 -16.0162
   -15.9836 -15.9803 -15.9689 -15.9687 -15.9656 -15.9647 -15.9636 -15.9620
   -15.9254 -15.9252 -15.9250 -15.9170 -15.9167 -15.9150 -15.9147 -15.9142
   -13.3715 -12.6912 -12.5047 -12.4268 -12.0049 -11.9935 -11.9531 -11.7456
   -11.4239 -11.1924 -11.1832 -11.1741  -7.8556  -7.7927  -7.6182  -7.5883
    -7.4477  -7.0188  -6.9561  -6.5311  -6.5008  -6.4491  -6.2011  -4.6853
    -4.5184  -4.3967  -4.3811  -4.3120  -4.0136  -3.8860  -3.7378  -3.6766
    -3.5761  -3.3845  -2.9644  -2.9086  -2.8514  -2.8489  -2.6826  -2.6755
    -2.6749  -2.6612  -2.3414  -2.3227  -2.2882  -2.2630  -2.0460  -1.6775
    -1.4462  -1.2181  -1.1220  -1.1068  -1.0445  -0.9555  -0.5345   0.2212
     0.6180   0.7468   0.8862   0.9462   1.0072   1.1291   1.3154   1.3236
     1.4038   1.6782   1.7811   1.8286   2.0149   2.0370   2.0519   2.2961
     2.5275   2.7875   2.8648   2.8841   2.9675   3.0647   3.1350   3.1438
     3.1724   3.4147

          k = 0.1500-0.2021 0.0000 (186584 PWs)   bands (ev):

   -37.2250 -37.2250 -37.2250 -37.2249 -37.2249 -37.2243 -37.2243 -37.2243
   -37.0377 -37.0376 -37.0376 -37.0375 -37.0354 -37.0354 -37.0352 -37.0352
   -36.9778 -36.9774 -36.9774 -36.9774 -36.7158 -36.7153 -36.7153 -36.7153
   -36.7042 -36.7041 -36.7041 -36.7039 -36.7039 -36.7039 -36.7038 -36.7037
   -36.6824 -36.6824 -36.6824 -36.6823 -36.6823 -36.6814 -36.6814 -36.6814
   -36.5835 -36.5835 -36.5835 -36.5834 -36.5834 -36.5825 -36.5825 -36.5824
   -36.5413 -36.5413 -36.5412 -36.5410 -36.5410 -36.5410 -36.5409 -36.5409
   -36.5373 -36.5368 -36.5368 -36.5367 -16.6426 -16.6424 -16.6415 -16.6413
   -16.6398 -16.6285 -16.6284 -16.6282 -16.5111 -16.5089 -16.5088 -16.5086
   -16.5004 -16.5002 -16.4999 -16.4962 -16.4957 -16.4949 -16.4948 -16.4935
   -16.3187 -16.3182 -16.3181 -16.3065 -16.2737 -16.2732 -16.2729 -16.2654
   -16.2601 -16.2448 -16.2446 -16.2442 -16.2155 -16.2155 -16.2153 -16.2077
   -16.2062 -16.2019 -16.2016 -16.2016 -16.0474 -16.0458 -16.0452 -16.0112
   -15.9857 -15.9838 -15.9663 -15.9663 -15.9651 -15.9638 -15.9630 -15.9619
   -15.9262 -15.9260 -15.9260 -15.9156 -15.9155 -15.9147 -15.9144 -15.9140
   -13.4734 -12.7802 -12.3598 -12.2949 -12.0588 -11.9177 -11.8804 -11.7772
   -11.4650 -11.1817 -11.1777 -11.1762  -7.9361  -7.8105  -7.7190  -7.6898
    -7.4634  -7.2213  -7.1559  -6.5581  -6.5486  -6.4752  -6.1760  -4.4901
    -4.3869  -4.3820  -4.2538  -4.0128  -3.9108  -3.8249  -3.7100  -3.4886
    -3.3244  -3.2406  -2.9784  -2.9496  -2.9416  -2.7796  -2.7652  -2.7615
    -2.7161  -2.4762  -2.2980  -2.2954  -2.2809  -2.1157  -2.0083  -1.6796
    -1.4517  -1.3863  -1.2840  -1.0332  -0.9473  -0.8227  -0.4503   0.3096
     0.5285   0.5374   0.6758   0.6959   0.7871   0.9260   1.2022   1.2996
     1.4267   1.4675   1.6534   1.7522   1.7830   1.8465   1.8695   2.3679
     2.6351   2.8046   2.8662   2.9416   3.0047   3.0264   3.0507   3.2093
     3.2225   3.2593

          k = 0.1500-0.0866 0.0000 (186522 PWs)   bands (ev):

   -37.2250 -37.2250 -37.2250 -37.2250 -37.2250 -37.2243 -37.2243 -37.2243
   -37.0377 -37.0376 -37.0376 -37.0375 -37.0354 -37.0354 -37.0352 -37.0352
   -36.9778 -36.9774 -36.9774 -36.9774 -36.7158 -36.7153 -36.7153 -36.7153
   -36.7042 -36.7041 -36.7041 -36.7039 -36.7039 -36.7039 -36.7037 -36.7037
   -36.6824 -36.6824 -36.6824 -36.6824 -36.6823 -36.6814 -36.6813 -36.6813
   -36.5835 -36.5835 -36.5835 -36.5835 -36.5834 -36.5824 -36.5824 -36.5824
   -36.5413 -36.5413 -36.5413 -36.5410 -36.5410 -36.5410 -36.5409 -36.5409
   -36.5373 -36.5368 -36.5368 -36.5368 -16.6429 -16.6424 -16.6424 -16.6414
   -16.6406 -16.6278 -16.6276 -16.6276 -16.5113 -16.5088 -16.5087 -16.5087
   -16.5007 -16.5003 -16.5003 -16.4958 -16.4958 -16.4949 -16.4944 -16.4934
   -16.3196 -16.3196 -16.3194 -16.3064 -16.2731 -16.2731 -16.2727 -16.2641
   -16.2614 -16.2441 -16.2438 -16.2438 -16.2161 -16.2160 -16.2160 -16.2071
   -16.2064 -16.2010 -16.2010 -16.2009 -16.0478 -16.0478 -16.0469 -16.0079
   -15.9871 -15.9861 -15.9647 -15.9647 -15.9645 -15.9637 -15.9622 -15.9622
   -15.9267 -15.9267 -15.9266 -15.9147 -15.9146 -15.9146 -15.9141 -15.9138
   -13.5310 -12.8309 -12.2771 -12.1418 -12.1418 -11.8766 -11.8143 -11.8143
   -11.4893 -11.1802 -11.1781 -11.1781  -7.9827  -7.8097  -7.8097  -7.7559
    -7.4314  -7.4314  -7.2906  -6.5531  -6.5091  -6.5091  -6.1722  -4.3867
    -4.3867  -4.3774  -4.1411  -3.8593  -3.8593  -3.6580  -3.5423  -3.5423
    -3.2015  -3.0156  -3.0156  -2.9864  -2.9046  -2.8790  -2.8364  -2.8364
    -2.4626  -2.3451  -2.2869  -2.2712  -2.2712  -2.0340  -1.9321  -1.6735
    -1.6735  -1.5434  -1.0731  -1.0731  -0.9083  -0.6345  -0.3976  -0.0257
     0.1821   0.3593   0.6182   0.6709   0.6709   0.8825   0.8825   1.2410
     1.2410   1.5828   1.6937   1.7194   1.7194   1.7694   1.9767   2.3882
     2.6876   2.7460   2.8527   2.8527   2.9317   2.9861   3.1981   3.2647
     3.3133   3.3789

          k = 0.1500 0.0289 0.0000 (186480 PWs)   bands (ev):

   -37.2250 -37.2250 -37.2250 -37.2250 -37.2250 -37.2243 -37.2243 -37.2243
   -37.0377 -37.0376 -37.0376 -37.0375 -37.0354 -37.0354 -37.0352 -37.0352
   -36.9778 -36.9774 -36.9774 -36.9774 -36.7158 -36.7153 -36.7153 -36.7153
   -36.7042 -36.7042 -36.7041 -36.7039 -36.7039 -36.7038 -36.7038 -36.7037
   -36.6824 -36.6824 -36.6824 -36.6824 -36.6823 -36.6814 -36.6813 -36.6813
   -36.5835 -36.5835 -36.5835 -36.5835 -36.5834 -36.5824 -36.5824 -36.5824
   -36.5413 -36.5413 -36.5413 -36.5410 -36.5410 -36.5410 -36.5409 -36.5409
   -36.5374 -36.5368 -36.5368 -36.5368 -16.6430 -16.6427 -16.6425 -16.6414
   -16.6408 -16.6276 -16.6275 -16.6274 -16.5113 -16.5087 -16.5087 -16.5086
   -16.5009 -16.5004 -16.5003 -16.4958 -16.4955 -16.4951 -16.4943 -16.4934
   -16.3199 -16.3198 -16.3197 -16.3064 -16.2731 -16.2729 -16.2727 -16.2638
   -16.2617 -16.2439 -16.2438 -16.2437 -16.2162 -16.2162 -16.2161 -16.2069
   -16.2064 -16.2009 -16.2008 -16.2008 -16.0483 -16.0477 -16.0474 -16.0072
   -15.9875 -15.9866 -15.9645 -15.9644 -15.9643 -15.9631 -15.9625 -15.9620
   -15.9268 -15.9268 -15.9267 -15.9146 -15.9145 -15.9143 -15.9142 -15.9139
   -13.5425 -12.8412 -12.2323 -12.1867 -12.1054 -11.8554 -11.8344 -11.8032
   -11.4942 -11.1796 -11.1793 -11.1788  -7.9922  -7.8272  -7.7992  -7.7810
    -7.4797  -7.3959  -7.3481  -6.5414  -6.5263  -6.4967  -6.1722  -4.3897
    -4.3739  -4.3728  -4.1223  -3.8649  -3.7695  -3.6969  -3.5522  -3.3755
    -3.2504  -3.0287  -3.0196  -3.0077  -2.9063  -2.8748  -2.8523  -2.7809
    -2.4558  -2.2801  -2.2743  -2.2607  -2.2470  -2.0293  -1.9224  -1.7233
    -1.6458  -1.6020  -1.0811  -0.9896  -0.9356  -0.5838  -0.3972  -0.1082
     0.0959   0.3894   0.4984   0.6446   0.6662   0.7407   0.8738   1.2291
     1.3992   1.5252   1.6858   1.6926   1.7229   1.7399   2.0359   2.3855
     2.6891   2.7548   2.7923   2.8463   2.9251   3.0235   3.1504   3.3157
     3.3566   3.3837

          k = 0.2500 0.2021 0.0000 (186601 PWs)   bands (ev):

   -37.2250 -37.2250 -37.2249 -37.2249 -37.2249 -37.2244 -37.2244 -37.2243
   -37.0377 -37.0376 -37.0376 -37.0375 -37.0353 -37.0353 -37.0353 -37.0352
   -36.9778 -36.9775 -36.9774 -36.9774 -36.7158 -36.7154 -36.7153 -36.7153
   -36.7042 -36.7041 -36.7041 -36.7039 -36.7039 -36.7038 -36.7038 -36.7038
   -36.6824 -36.6824 -36.6823 -36.6822 -36.6822 -36.6815 -36.6814 -36.6814
   -36.5835 -36.5835 -36.5834 -36.5834 -36.5833 -36.5826 -36.5825 -36.5825
   -36.5413 -36.5412 -36.5412 -36.5410 -36.5410 -36.5410 -36.5410 -36.5409
   -36.5373 -36.5369 -36.5368 -36.5368 -16.6427 -16.6416 -16.6414 -16.6406
   -16.6388 -16.6295 -16.6290 -16.6290 -16.5108 -16.5090 -16.5087 -16.5086
   -16.5005 -16.4999 -16.4994 -16.4959 -16.4959 -16.4952 -16.4948 -16.4941
   -16.3176 -16.3173 -16.3164 -16.3067 -16.2742 -16.2738 -16.2728 -16.2668
   -16.2586 -16.2460 -16.2450 -16.2447 -16.2149 -16.2148 -16.2146 -16.2084
   -16.2060 -16.2028 -16.2025 -16.2022 -16.0463 -16.0452 -16.0423 -16.0148
   -15.9839 -15.9817 -15.9675 -15.9673 -15.9661 -15.9661 -15.9624 -15.9619
   -15.9258 -15.9256 -15.9251 -15.9165 -15.9160 -15.9154 -15.9144 -15.9141
   -13.4053 -12.7206 -12.5316 -12.2462 -12.0937 -12.0248 -11.8484 -11.7793
   -11.4373 -11.1973 -11.1725 -11.1719  -7.8820  -7.7728  -7.7111  -7.5911
    -7.3755  -7.2187  -6.9583  -6.5298  -6.4984  -6.4842  -6.1906  -4.5454
    -4.4297  -4.4166  -4.4158  -4.1212  -4.0271  -4.0085  -3.8342  -3.5665
    -3.5602  -3.1678  -2.9233  -2.9008  -2.8695  -2.8547  -2.7111  -2.6968
    -2.6903  -2.6716  -2.3207  -2.3195  -2.2671  -2.1595  -2.0639  -1.5914
    -1.4389  -1.3489  -1.2044  -1.1236  -1.0445  -0.8582  -0.4785   0.4710
     0.4787   0.4824   0.7370   0.7517   0.7846   1.2292   1.3944   1.4556
     1.4667   1.6541   1.7050   1.8405   1.8713   1.9171   2.0054   2.3294
     2.5500   2.7171   2.9760   2.9815   3.0109   3.0949   3.1557   3.1734
     3.1748   3.2665

          k = 0.2500 0.3175 0.0000 (186604 PWs)   bands (ev):

   -37.2250 -37.2250 -37.2249 -37.2248 -37.2248 -37.2244 -37.2244 -37.2244
   -37.0377 -37.0376 -37.0376 -37.0375 -37.0353 -37.0353 -37.0353 -37.0352
   -36.9777 -36.9775 -36.9775 -36.9774 -36.7157 -36.7154 -36.7154 -36.7153
   -36.7042 -36.7041 -36.7041 -36.7039 -36.7038 -36.7038 -36.7038 -36.7038
   -36.6824 -36.6824 -36.6823 -36.6821 -36.6821 -36.6816 -36.6815 -36.6815
   -36.5835 -36.5835 -36.5834 -36.5832 -36.5832 -36.5826 -36.5826 -36.5826
   -36.5413 -36.5412 -36.5412 -36.5410 -36.5410 -36.5410 -36.5410 -36.5410
   -36.5372 -36.5369 -36.5368 -36.5367 -16.6421 -16.6416 -16.6414 -16.6389
   -16.6376 -16.6306 -16.6302 -16.6300 -16.5105 -16.5091 -16.5089 -16.5086
   -16.5003 -16.4994 -16.4990 -16.4965 -16.4956 -16.4952 -16.4952 -16.4945
   -16.3166 -16.3153 -16.3147 -16.3072 -16.2750 -16.2739 -16.2731 -16.2686
   -16.2566 -16.2470 -16.2461 -16.2450 -16.2141 -16.2141 -16.2134 -16.2093
   -16.2058 -16.2042 -16.2032 -16.2031 -16.0461 -16.0420 -16.0399 -16.0191
   -15.9823 -15.9783 -15.9704 -15.9699 -15.9659 -15.9658 -15.9636 -15.9621
   -15.9250 -15.9248 -15.9243 -15.9178 -15.9173 -15.9153 -15.9147 -15.9143
   -13.3049 -12.6335 -12.6174 -12.4525 -12.0821 -11.9695 -11.9672 -11.7325
   -11.3983 -11.2078 -11.1839 -11.1731  -7.8048  -7.7810  -7.5872  -7.5408
    -7.4286  -6.9591  -6.8495  -6.5071  -6.4404  -6.3793  -6.2309  -4.7786
    -4.7159  -4.4720  -4.4075  -4.3666  -4.0081  -3.9850  -3.8780  -3.7128
    -3.6686  -3.3170  -3.0407  -2.8662  -2.8164  -2.8033  -2.7817  -2.6418
    -2.6343  -2.6162  -2.4579  -2.3540  -2.2802  -2.2020  -2.0755  -1.7458
    -1.4216  -1.2685  -1.2176  -1.0167  -0.9736  -0.8590  -0.5836   0.0024
     0.6282   0.7845   0.8566   1.0616   1.1173   1.2042   1.2971   1.4723
     1.5337   1.7834   1.8232   1.9231   2.0949   2.1266   2.2292   2.3646
     2.5191   2.7119   2.8348   2.9041   2.9114   3.1489   3.1605   3.1634
     3.2569   3.6702

          k = 0.2500 0.4330 0.0000 (186666 PWs)   bands (ev):

   -37.2250 -37.2250 -37.2250 -37.2247 -37.2247 -37.2245 -37.2245 -37.2245
   -37.0377 -37.0376 -37.0376 -37.0375 -37.0353 -37.0353 -37.0353 -37.0353
   -36.9777 -36.9775 -36.9775 -36.9774 -36.7156 -36.7154 -36.7154 -36.7152
   -36.7042 -36.7041 -36.7041 -36.7039 -36.7039 -36.7039 -36.7038 -36.7038
   -36.6824 -36.6823 -36.6823 -36.6820 -36.6820 -36.6816 -36.6816 -36.6816
   -36.5835 -36.5834 -36.5834 -36.5831 -36.5831 -36.5827 -36.5827 -36.5827
   -36.5413 -36.5412 -36.5412 -36.5410 -36.5410 -36.5410 -36.5410 -36.5410
   -36.5371 -36.5369 -36.5369 -36.5367 -16.6416 -16.6414 -16.6414 -16.6371
   -16.6361 -16.6317 -16.6317 -16.6315 -16.5101 -16.5092 -16.5092 -16.5085
   -16.4999 -16.4987 -16.4987 -16.4972 -16.4960 -16.4953 -16.4953 -16.4948
   -16.3156 -16.3130 -16.3130 -16.3081 -16.2756 -16.2736 -16.2736 -16.2706
   -16.2540 -16.2479 -16.2479 -16.2454 -16.2132 -16.2132 -16.2119 -16.2104
   -16.2059 -16.2055 -16.2040 -16.2040 -16.0456 -16.0377 -16.0377 -16.0243
   -15.9803 -15.9743 -15.9730 -15.9730 -15.9657 -15.9657 -15.9654 -15.9626
   -15.9239 -15.9235 -15.9235 -15.9194 -15.9189 -15.9152 -15.9152 -15.9146
   -13.1640 -12.6744 -12.6744 -12.5131 -12.1214 -12.1214 -11.8700 -11.7103
   -11.3476 -11.2158 -11.2158 -11.1763  -7.7786  -7.7035  -7.5135  -7.5135
    -7.4459  -6.7650  -6.7650  -6.4118  -6.3237  -6.2494  -6.2494  -5.1201
    -4.9572  -4.7511  -4.3672  -4.3672  -4.1479  -3.9609  -3.8193  -3.8193
    -3.5355  -3.5355  -3.2002  -2.8949  -2.8178  -2.8009  -2.8009  -2.7998
    -2.5857  -2.5061  -2.5061  -2.3881  -2.1356  -2.1356  -2.1297  -1.9638
    -1.5338  -1.3083  -1.0714  -1.0714  -0.7193  -0.6525  -0.6525  -0.4295
     0.4248   0.9911   0.9911   1.2387   1.4285   1.4285   1.4865   1.6255
     1.6255   1.7198   1.9405   2.1015   2.1104   2.1760   2.1760   2.4951
     2.5232   2.7381   2.7381   2.8791   3.1630   3.1630   3.2792   3.3508
     3.4265   3.7301

          k = 0.2500 0.5485 0.0000 (186632 PWs)   bands (ev):

   -37.2250 -37.2250 -37.2249 -37.2246 -37.2246 -37.2246 -37.2245 -37.2245
   -37.0377 -37.0376 -37.0376 -37.0375 -37.0353 -37.0353 -37.0353 -37.0353
   -36.9776 -36.9776 -36.9775 -36.9774 -36.7156 -36.7155 -36.7154 -36.7152
   -36.7042 -36.7041 -36.7041 -36.7039 -36.7039 -36.7039 -36.7038 -36.7038
[...]
     1.5780   1.7408   1.8933   2.0282   2.1604   2.1684   2.1746   2.4947
     2.5259   2.7217   2.7691   2.8675   3.0402   3.1647   3.1659   3.2091
     3.3339   3.7040

          k = 0.4500 0.0866 0.0000 (186606 PWs)   bands (ev):

   -37.2250 -37.2250 -37.2249 -37.2248 -37.2248 -37.2245 -37.2244 -37.2244
   -37.0377 -37.0377 -37.0376 -37.0375 -37.0354 -37.0353 -37.0353 -37.0352
   -36.9777 -36.9775 -36.9775 -36.9774 -36.7157 -36.7155 -36.7154 -36.7152
   -36.7042 -36.7041 -36.7040 -36.7040 -36.7039 -36.7039 -36.7038 -36.7038
   -36.6824 -36.6824 -36.6823 -36.6821 -36.6820 -36.6816 -36.6816 -36.6815
   -36.5835 -36.5835 -36.5834 -36.5832 -36.5831 -36.5827 -36.5826 -36.5826
   -36.5412 -36.5412 -36.5412 -36.5411 -36.5411 -36.5410 -36.5410 -36.5409
   -36.5372 -36.5369 -36.5369 -36.5367 -16.6421 -16.6417 -16.6409 -16.6382
   -16.6367 -16.6316 -16.6308 -16.6307 -16.5103 -16.5092 -16.5089 -16.5085
   -16.4996 -16.4995 -16.4983 -16.4972 -16.4961 -16.4954 -16.4953 -16.4942
   -16.3159 -16.3145 -16.3133 -16.3077 -16.2753 -16.2742 -16.2730 -16.2698
   -16.2551 -16.2481 -16.2465 -16.2453 -16.2136 -16.2135 -16.2127 -16.2100
   -16.2056 -16.2050 -16.2038 -16.2036 -16.0456 -16.0411 -16.0373 -16.0222
   -15.9808 -15.9763 -15.9722 -15.9709 -15.9672 -15.9661 -15.9635 -15.9621
   -15.9244 -15.9244 -15.9235 -15.9188 -15.9180 -15.9156 -15.9147 -15.9144
   -13.2285 -12.7306 -12.5679 -12.4722 -12.1649 -11.9781 -11.9518 -11.7219
   -11.3702 -11.2283 -11.1845 -11.1723  -7.7697  -7.7487  -7.5624  -7.5240
    -7.4077  -6.9106  -6.7526  -6.4813  -6.4347  -6.2782  -6.1925  -4.9471
    -4.8514  -4.6065  -4.4115  -4.3422  -4.0733  -4.0526  -3.9979  -3.8410
    -3.5831  -3.2433  -3.0978  -2.9018  -2.8205  -2.8084  -2.7643  -2.6033
    -2.5988  -2.5681  -2.5329  -2.3856  -2.2726  -2.1175  -2.1153  -1.8379
    -1.4361  -1.3505  -1.2720  -0.9318  -0.9028  -0.6646  -0.6326  -0.1950
     0.4970   0.7253   0.8317   1.1230   1.1307   1.2480   1.5238   1.5504
     1.7988   1.8191   1.9006   2.0345   2.1420   2.1677   2.1794   2.5244
     2.5618   2.6569   2.7730   2.9793   3.0403   3.1999   3.2323   3.2533
     3.3560   3.7317

          k = 0.4500 0.2021 0.0000 (186681 PWs)   bands (ev):

   -37.2250 -37.2250 -37.2249 -37.2248 -37.2247 -37.2246 -37.2244 -37.2244
   -37.0377 -37.0377 -37.0376 -37.0375 -37.0353 -37.0353 -37.0353 -37.0352
   -36.9777 -36.9776 -36.9774 -36.9774 -36.7157 -36.7155 -36.7153 -36.7153
   -36.7042 -36.7041 -36.7040 -36.7040 -36.7039 -36.7038 -36.7038 -36.7038
   -36.6824 -36.6824 -36.6822 -36.6821 -36.6820 -36.6817 -36.6816 -36.6816
   -36.5835 -36.5835 -36.5833 -36.5832 -36.5830 -36.5828 -36.5826 -36.5826
   -36.5413 -36.5412 -36.5411 -36.5411 -36.5410 -36.5410 -36.5410 -36.5409
   -36.5371 -36.5370 -36.5368 -36.5367 -16.6423 -16.6419 -16.6397 -16.6387
   -16.6358 -16.6325 -16.6308 -16.6307 -16.5102 -16.5095 -16.5087 -16.5086
   -16.4997 -16.4997 -16.4978 -16.4968 -16.4963 -16.4960 -16.4949 -16.4944
   -16.3154 -16.3150 -16.3120 -16.3084 -16.2753 -16.2749 -16.2722 -16.2702
   -16.2541 -16.2496 -16.2459 -16.2455 -16.2132 -16.2129 -16.2129 -16.2106
   -16.2052 -16.2048 -16.2044 -16.2039 -16.0445 -16.0430 -16.0342 -16.0245
   -15.9784 -15.9761 -15.9726 -15.9705 -15.9697 -15.9679 -15.9622 -15.9618
   -15.9246 -15.9245 -15.9226 -15.9195 -15.9175 -15.9166 -15.9145 -15.9143
   -13.1750 -12.8713 -12.5227 -12.2828 -12.2739 -12.0958 -11.8577 -11.7635
   -11.3516 -11.2611 -11.1675 -11.1652  -7.7143  -7.7118  -7.6337  -7.5520
    -7.2594  -7.0678  -6.6370  -6.5195  -6.4798  -6.3252  -5.9302  -5.1300
    -4.7148  -4.5071  -4.4813  -4.4190  -4.2661  -4.1674  -4.1321  -4.0603
    -3.3250  -3.0667  -3.0581  -3.0055  -2.7733  -2.7466  -2.6868  -2.5727
    -2.5629  -2.4896  -2.4314  -2.4273  -2.3838  -2.2258  -2.0088  -1.7396
    -1.5766  -1.5376  -1.2182  -1.0726  -0.7416  -0.6023  -0.4580  -0.0553
     0.2433   0.2707   0.6565   0.9063   0.9416   1.0499   1.8424   1.8616
     1.9261   1.9423   2.0745   2.0906   2.1245   2.1729   2.3871   2.4989
     2.5733   2.6160   2.8244   3.0416   3.2694   3.2709   3.4211   3.4971
     3.5903   3.7093

     the Fermi energy is    -1.6736 ev

!    total energy              =   -4146.60803192 Ry
     estimated scf accuracy    <          5.4E-10 Ry
     smearing contrib. (-TS)   =      -0.00000057 Ry
     internal energy E=F+TS    =   -4146.60803135 Ry

     The total energy is F=E-TS. E is the sum of the following terms:
     one-electron contribution =  -50028.46322810 Ry
     hartree contribution      =   25090.41573844 Ry
     xc contribution           =    -964.55617978 Ry
     ewald contribution        =   21756.00334631 Ry
     electric field correction =      -0.00770822 Ry

     convergence has been achieved in  35 iterations

     Forces acting on atoms (cartesian axes, Ry/au):

     atom    1 type  1   force =    -0.00000041    0.00000019   -0.01517158
     atom    2 type  1   force =    -0.00002787    0.00001578    0.00651608
     atom    3 type  1   force =    -0.00003861    0.00002253    0.02198638
     atom    4 type  1   force =    -0.00002773    0.00001610    0.00651606
     atom    5 type  1   force =    -0.00003862    0.00002222    0.02198638
     atom    6 type  1   force =    -0.00000035    0.00000026   -0.01517157
     atom    7 type  1   force =    -0.00002762    0.00001580    0.00651597
     atom    8 type  1   force =    -0.00003834    0.00002241    0.02198630
     atom    9 type  1   force =    -0.00000032    0.00000022   -0.01517162
     atom   10 type  1   force =    -0.00002785    0.00001614    0.00651601
     atom   11 type  1   force =    -0.00003866    0.00002238    0.02198635
     atom   12 type  1   force =    -0.00000037    0.00000022   -0.01517152
     atom   13 type  2   force =     0.00005678   -0.00003292   -0.00838665
     atom   14 type  2   force =     0.00000717   -0.00000421   -0.01422428
     atom   15 type  2   force =     0.00000266   -0.00000145    0.00928004
     atom   16 type  2   force =     0.00000250   -0.00000143    0.00928001
     atom   17 type  2   force =     0.00005676   -0.00003309   -0.00838656
     atom   18 type  2   force =     0.00000739   -0.00000415   -0.01422428
     atom   19 type  2   force =     0.00005680   -0.00003265   -0.00838648
     atom   20 type  2   force =     0.00000740   -0.00000417   -0.01422416
     atom   21 type  2   force =     0.00000240   -0.00000131    0.00928035
     atom   22 type  2   force =     0.00005712   -0.00003325   -0.00838649
     atom   23 type  2   force =     0.00000718   -0.00000425   -0.01422470
     atom   24 type  2   force =     0.00000261   -0.00000135    0.00927997
     The non-local contrib.  to forces
     atom    1 type  1   force =    -0.00002417    0.00001390    0.35618103
     atom    2 type  1   force =     0.00004801   -0.00002772   -0.08522264
     atom    3 type  1   force =     0.00002231   -0.00001303   -0.10210293
     atom    4 type  1   force =     0.00004793   -0.00002782   -0.08522273
     atom    5 type  1   force =     0.00002264   -0.00001285   -0.10210277
     atom    6 type  1   force =    -0.00002414    0.00001393    0.35618101
     atom    7 type  1   force =     0.00004847   -0.00002799   -0.08522297
     atom    8 type  1   force =     0.00002266   -0.00001291   -0.10210227
     atom    9 type  1   force =    -0.00002414    0.00001384    0.35618109
     atom   10 type  1   force =     0.00004841   -0.00002788   -0.08522295
     atom   11 type  1   force =     0.00002216   -0.00001287   -0.10210322
     atom   12 type  1   force =    -0.00002416    0.00001385    0.35618107
     atom   13 type  2   force =    -0.00027550    0.00015948   -0.04747004
     atom   14 type  2   force =    -0.00001008    0.00000562   -0.44950791
     atom   15 type  2   force =    -0.00004698    0.00002717    0.11371615
     atom   16 type  2   force =    -0.00004694    0.00002700    0.11371631
     atom   17 type  2   force =    -0.00027563    0.00015931   -0.04747023
     atom   18 type  2   force =    -0.00000954    0.00000580   -0.44950808
     atom   19 type  2   force =    -0.00027513    0.00015882   -0.04747069
     atom   20 type  2   force =    -0.00000968    0.00000587   -0.44950782
     atom   21 type  2   force =    -0.00004695    0.00002701    0.11371598
     atom   22 type  2   force =    -0.00027546    0.00015933   -0.04747025
     atom   23 type  2   force =    -0.00001025    0.00000564   -0.44950816
     atom   24 type  2   force =    -0.00004728    0.00002695    0.11371621
     The ionic contribution  to forces
     atom    1 type  1   force =     0.00000062   -0.00000103 -167.56823365
     atom    2 type  1   force =    -0.00001377   -0.00001957  -53.88644650
     atom    3 type  1   force =    -0.00001024    0.00001227   80.02791724
     atom    4 type  1   force =    -0.00000297    0.00001769  -53.88645316
     atom    5 type  1   force =     0.00000702   -0.00000737   80.02792777
     atom    6 type  1   force =     0.00000475   -0.00000180 -167.56823119
     atom    7 type  1   force =     0.00002264   -0.00003124  -53.88645601
     atom    8 type  1   force =     0.00001650    0.00002370   80.02792137
     atom    9 type  1   force =    -0.00000123    0.00000357 -167.56823276
     atom   10 type  1   force =     0.00001018    0.00000841  -53.88644934
     atom   11 type  1   force =    -0.00002147    0.00000292   80.02794471
     atom   12 type  1   force =    -0.00000448   -0.00000021 -167.56822758
     atom   13 type  2   force =    -0.00001144    0.00000988   53.88643765
     atom   14 type  2   force =     0.00000929    0.00000439  188.12656113
     atom   15 type  2   force =     0.00000361   -0.00001556 -100.58625196
     atom   16 type  2   force =     0.00000416    0.00001198 -100.58626457
     atom   17 type  2   force =    -0.00000886   -0.00002094   53.88645403
     atom   18 type  2   force =    -0.00001214   -0.00000315  188.12655812
     atom   19 type  2   force =     0.00000615    0.00001817   53.88645570
     atom   20 type  2   force =    -0.00001042   -0.00000688  188.12656606
     atom   21 type  2   force =    -0.00001530    0.00000675 -100.58623605
     atom   22 type  2   force =     0.00002291   -0.00003952   53.88643932
     atom   23 type  2   force =     0.00001303    0.00000656  188.12655919
     atom   24 type  2   force =    -0.00000852    0.00002098 -100.58625955
     The local contribution  to forces
     atom    1 type  1   force =     0.00002521   -0.00001316  167.24021196
     atom    2 type  1   force =    -0.00006990    0.00006684   54.02353621
     atom    3 type  1   force =    -0.00005829    0.00002520  -79.85520086
     atom    4 type  1   force =    -0.00007994    0.00003113   54.02354246
     atom    5 type  1   force =    -0.00007275    0.00004747  -79.85520764
     atom    6 type  1   force =     0.00002030   -0.00001333  167.24020976
     atom    7 type  1   force =    -0.00010133    0.00007646   54.02354540
     atom    8 type  1   force =    -0.00008392    0.00001642  -79.85519224
     atom    9 type  1   force =     0.00002383   -0.00001667  167.24021277
     atom   10 type  1   force =    -0.00008959    0.00003747   54.02354003
     atom   11 type  1   force =    -0.00004866    0.00003666  -79.85523034
     atom   12 type  1   force =     0.00002783   -0.00001301  167.24020740
     atom   13 type  2   force =     0.00035208   -0.00020321  -53.79873990
     atom   14 type  2   force =     0.00000957   -0.00001399 -187.65011510
     atom   15 type  2   force =     0.00004644   -0.00001567  100.52979030
     atom   16 type  2   force =     0.00004831   -0.00003977  100.52980246
     atom   17 type  2   force =     0.00034562   -0.00017792  -53.79875508
     atom   18 type  2   force =     0.00002917   -0.00000809 -187.65011135
     atom   19 type  2   force =     0.00033225   -0.00021411  -53.79875589
     atom   20 type  2   force =     0.00002691   -0.00000336 -187.65011772
     atom   21 type  2   force =     0.00006574   -0.00003509  100.52977348
     atom   22 type  2   force =     0.00032011   -0.00015836  -53.79874325
     atom   23 type  2   force =     0.00000524   -0.00001636 -187.65011413
     atom   24 type  2   force =     0.00005691   -0.00004904  100.52979707
     The core correction contribution to forces
     atom    1 type  1   force =    -0.00000027    0.00000017   -0.00037718
     atom    2 type  1   force =     0.00000546   -0.00000315   -0.00237387
     atom    3 type  1   force =     0.00000688   -0.00000403   -0.00565329
     atom    4 type  1   force =     0.00000546   -0.00000315   -0.00237388
     atom    5 type  1   force =     0.00000694   -0.00000396   -0.00565326
     atom    6 type  1   force =    -0.00000029    0.00000015   -0.00037718
     atom    7 type  1   force =     0.00000555   -0.00000321   -0.00237385
     atom    8 type  1   force =     0.00000691   -0.00000397   -0.00565318
     atom    9 type  1   force =    -0.00000036    0.00000020   -0.00037715
     atom   10 type  1   force =     0.00000556   -0.00000321   -0.00237386
     atom   11 type  1   force =     0.00000685   -0.00000398   -0.00565326
     atom   12 type  1   force =    -0.00000034    0.00000020   -0.00037717
     atom   13 type  2   force =    -0.00000714    0.00000412    0.00097326
     atom   14 type  2   force =    -0.00000055    0.00000034    0.00841053
     atom   15 type  2   force =    -0.00000083    0.00000044    0.00161361
     atom   16 type  2   force =    -0.00000079    0.00000049    0.00161360
     atom   17 type  2   force =    -0.00000713    0.00000412    0.00097326
     atom   18 type  2   force =    -0.00000059    0.00000031    0.00841053
     atom   19 type  2   force =    -0.00000710    0.00000410    0.00097325
     atom   20 type  2   force =    -0.00000060    0.00000033    0.00841053
     atom   21 type  2   force =    -0.00000083    0.00000048    0.00161359
     atom   22 type  2   force =    -0.00000711    0.00000410    0.00097325
     atom   23 type  2   force =    -0.00000057    0.00000034    0.00841056
     atom   24 type  2   force =    -0.00000086    0.00000049    0.00161361
     The Hubbard contrib.    to forces
     atom    1 type  1   force =     0.00000000    0.00000000    0.00000000
     atom    2 type  1   force =     0.00000000    0.00000000    0.00000000
     atom    3 type  1   force =     0.00000000    0.00000000    0.00000000
     atom    4 type  1   force =     0.00000000    0.00000000    0.00000000
     atom    5 type  1   force =     0.00000000    0.00000000    0.00000000
     atom    6 type  1   force =     0.00000000    0.00000000    0.00000000
     atom    7 type  1   force =     0.00000000    0.00000000    0.00000000
     atom    8 type  1   force =     0.00000000    0.00000000    0.00000000
     atom    9 type  1   force =     0.00000000    0.00000000    0.00000000
     atom   10 type  1   force =     0.00000000    0.00000000    0.00000000
     atom   11 type  1   force =     0.00000000    0.00000000    0.00000000
     atom   12 type  1   force =     0.00000000    0.00000000    0.00000000
     atom   13 type  2   force =     0.00000000    0.00000000    0.00000000
     atom   14 type  2   force =     0.00000000    0.00000000    0.00000000
     atom   15 type  2   force =     0.00000000    0.00000000    0.00000000
     atom   16 type  2   force =     0.00000000    0.00000000    0.00000000
     atom   17 type  2   force =     0.00000000    0.00000000    0.00000000
     atom   18 type  2   force =     0.00000000    0.00000000    0.00000000
     atom   19 type  2   force =     0.00000000    0.00000000    0.00000000
     atom   20 type  2   force =     0.00000000    0.00000000    0.00000000
     atom   21 type  2   force =     0.00000000    0.00000000    0.00000000
     atom   22 type  2   force =     0.00000000    0.00000000    0.00000000
     atom   23 type  2   force =     0.00000000    0.00000000    0.00000000
     atom   24 type  2   force =     0.00000000    0.00000000    0.00000000
     The SCF correction term to forces
     atom    1 type  1   force =    -0.00000179    0.00000031   -0.00001161
     atom    2 type  1   force =     0.00000233   -0.00000064   -0.00003500
     atom    3 type  1   force =     0.00000074    0.00000211   -0.00003167
     atom    4 type  1   force =     0.00000180   -0.00000175   -0.00003451
     atom    5 type  1   force =    -0.00000247   -0.00000106   -0.00003560
     atom    6 type  1   force =    -0.00000097    0.00000131   -0.00001185
     atom    7 type  1   force =    -0.00000295    0.00000177   -0.00003447
     atom    8 type  1   force =    -0.00000049   -0.00000084   -0.00004526
     atom    9 type  1   force =     0.00000158   -0.00000073   -0.00001345
     atom   10 type  1   force =    -0.00000241    0.00000134   -0.00003574
     atom   11 type  1   force =     0.00000246   -0.00000035   -0.00002942
     atom   12 type  1   force =     0.00000078   -0.00000060   -0.00001312
     atom   13 type  2   force =    -0.00000123   -0.00000320   -0.00003912
     atom   14 type  2   force =    -0.00000106   -0.00000057   -0.00002442
     atom   15 type  2   force =     0.00000042    0.00000217   -0.00003956
     atom   16 type  2   force =    -0.00000224   -0.00000113   -0.00003929
     atom   17 type  2   force =     0.00000276    0.00000234   -0.00004004
     atom   18 type  2   force =     0.00000050    0.00000098   -0.00002501
     atom   19 type  2   force =     0.00000063    0.00000037   -0.00004035
     atom   20 type  2   force =     0.00000120   -0.00000013   -0.00002672
     atom   21 type  2   force =    -0.00000026   -0.00000046   -0.00003815
     atom   22 type  2   force =    -0.00000334    0.00000118   -0.00003706
     atom   23 type  2   force =    -0.00000026   -0.00000043   -0.00002366
     atom   24 type  2   force =     0.00000237   -0.00000075   -0.00003886

     Total force =     0.066778     Total SCF correction =     0.000160

     Writing all to output data dir ./temp/GaAs_111_M0D003Ha.save/

     init_run     :     27.11s CPU     18.23s WALL (       1 calls)
     electrons    :   1769.71s CPU   1099.38s WALL (       1 calls)
     forces       :     12.44s CPU      7.85s WALL (       1 calls)

     Called by init_run:
     wfcinit      :     16.30s CPU     10.75s WALL (       1 calls)
     potinit      :      3.97s CPU      2.20s WALL (       1 calls)
     hinit0       :      6.39s CPU      4.83s WALL (       1 calls)

     Called by electrons:
     c_bands      :   1488.21s CPU    950.04s WALL (      35 calls)
     sum_band     :    273.91s CPU    142.62s WALL (      35 calls)
     v_of_rho     :      5.19s CPU      4.35s WALL (      36 calls)
     mix_rho      :      1.75s CPU      1.72s WALL (      35 calls)

     Called by c_bands:
     init_us_2    :     19.14s CPU      9.65s WALL (     504 calls)
     init_us_2:cp :     19.14s CPU      9.65s WALL (     504 calls)
     cegterg      :   1412.28s CPU    895.75s WALL (     245 calls)

     Called by *egterg:
     cdiaghg      :     52.69s CPU     32.02s WALL (    1234 calls)
     h_psi        :   1141.94s CPU    657.44s WALL (    1241 calls)
     g_psi        :      5.22s CPU      2.62s WALL (     989 calls)

     Called by h_psi:
     h_psi:calbec :     67.19s CPU     60.97s WALL (    1241 calls)
     vloc_psi     :    998.13s CPU    522.05s WALL (    1241 calls)
     add_vuspsi   :     66.30s CPU     66.50s WALL (    1241 calls)

     General routines
     calbec       :     70.11s CPU     63.75s WALL (    1269 calls)
     fft          :      2.66s CPU      2.96s WALL (     370 calls)
     ffts         :      0.13s CPU      0.16s WALL (      35 calls)
     fftw         :    938.91s CPU    495.52s WALL (  288582 calls)

     Parallel routines

     PWSCF        :  30m11.87s CPU  18m51.69s WALL


   This run was terminated on:  20:16:11  20Mar2025            

=------------------------------------------------------------------------------=
   JOB DONE.
=------------------------------------------------------------------------------=
