
     Program PWSCF v.7.2 starts on 20Mar2025 at 17:57:52 

     This program is part of the open-source Quantum ESPRESSO suite
     for quantum simulation of materials; please cite
         "P. Giannozzi et al., J. Phys.:Condens. Matter 21 395502 (2009);
         "P. Giannozzi et al., J. Phys.:Condens. Matter 29 465901 (2017);
         "P. Giannozzi et al., J. Chem. Phys. 152 154105 (2020);
          URL http://www.quantum-espresso.org", 
     in publications or presentations arising from this work. More details at
     http://www.quantum-espresso.org/quote

     Parallel version (MPI & OpenMP), running on     288 processor cores
     Number of MPI processes:               144
     Threads/MPI process:                     2

     MPI processes distributed on     6 nodes
     706807 MiB available memory on the printing compute node when the environment starts

     Reading input from GaAs111_M0D001Ha.scf.in

     Current dimensions of program PWSCF are:
     Max number of different atomic species (ntypx) = 10
     Max number of k-points (npk) =  40000
     Max angular momentum in pseudopotentials (lmaxx) =  4
     Found identity + (  0.5000 -0.5000  0.0000) symmetry
     This is a supercell, fractional translations are disabled

     K-points division:     npool     =       8
     R & G space division:  proc/nbgrp/npool/nimage =      18
     Subspace diagonalization in iterative solution of the eigenvalue problem:
     one sub-group per band group will be used
     ELPA distributed-memory algorithm (size of sub-group:  2*  2 procs)


     Parallelization info
     --------------------
     sticks:   dense  smooth     PW     G-vecs:    dense   smooth      PW
     Min         288     288     78                82920    82920   11697
     Max         289     289     80                82953    82953   11708
     Sum        5197    5197   1417              1492917  1492917  210619

     Using Slab Decomposition



     bravais-lattice index     =            0
     lattice parameter (alat)  =      15.3672  a.u.
     unit-cell volume          =   15443.3545 (a.u.)^3
     number of atoms/cell      =           24
     number of atomic types    =            2
     number of electrons       =       336.00
     number of Kohn-Sham states=          202
     kinetic-energy cutoff     =      80.0000  Ry
     charge density cutoff     =     320.0000  Ry
     scf convergence threshold =      1.0E-09
     mixing beta               =       0.7000
     number of iterations used =            8  plain     mixing
     Exchange-correlation= PBE
                           (   1   4   3   4   0   0   0)

     celldm(1)=  15.367226  celldm(2)=   0.000000  celldm(3)=   0.000000
     celldm(4)=   0.000000  celldm(5)=   0.000000  celldm(6)=   0.000000

     crystal axes: (cart. coord. in units of alat)
               a(1) = (   1.000000   0.000000   0.000000 )  
               a(2) = (  -0.500000   0.866025   0.000000 )  
               a(3) = (   0.000000   0.000000   4.913881 )  

     reciprocal axes: (cart. coord. in units 2 pi/alat)
               b(1) = (  1.000000  0.577350 -0.000000 )  
               b(2) = (  0.000000  1.154701  0.000000 )  
               b(3) = (  0.000000 -0.000000  0.203505 )  


     PseudoPot. # 1 for Ga read from file:
     ./Ga.upf
     MD5 check sum: 93d095ea82f116b4e2622455073fb9ee
     Pseudo is Norm-conserving + core correction, Zval = 13.0
     Generated using ONCVPSP code by D. R. Hamann
     Using radial grid of 1902 points,  6 beta functions with: 
                l(1) =   0
                l(2) =   0
                l(3) =   1
                l(4) =   1
                l(5) =   2
                l(6) =   2

     PseudoPot. # 2 for As read from file:
     ./As.upf
     MD5 check sum: 280d9fd8ba68a23ae96e751fcede625c
     Pseudo is Norm-conserving + core correction, Zval = 15.0
     Generated using ONCVPSP code by D. R. Hamann
     Using radial grid of 1350 points,  6 beta functions with: 
                l(1) =   0
                l(2) =   0
                l(3) =   1
                l(4) =   1
                l(5) =   2
                l(6) =   2

     atomic species   valence    mass     pseudopotential
        Ga            13.00    69.72000     Ga( 1.00)
        As            15.00    74.92000     As( 1.00)

     No symmetry found



   Cartesian axes

     site n.     atom                  positions (alat units)
         1           Ga  tau(   1) = (   0.0000000   0.0000000   1.8955990  )
         2           Ga  tau(   2) = (   0.0000000   0.5773504   2.3038472  )
         3           Ga  tau(   3) = (   0.5000000   0.2886751   2.7120955  )
         4           Ga  tau(   4) = (   0.7500000   0.1443376   2.3038472  )
         5           Ga  tau(   5) = (  -0.2500001   0.7216878   2.7120955  )
         6           Ga  tau(   6) = (   0.2499999   0.4330127   1.8955990  )
         7           Ga  tau(   7) = (   0.4999999   0.5773504   2.3038472  )
         8           Ga  tau(   8) = (  -0.0000001   0.2886751   2.7120955  )
         9           Ga  tau(   9) = (   0.5000000   0.0000000   1.8955990  )
        10           Ga  tau(  10) = (   0.2500000   0.1443376   2.3038472  )
        11           Ga  tau(  11) = (   0.2500000   0.7216878   2.7120955  )
        12           Ga  tau(  12) = (  -0.2500000   0.4330127   1.8955990  )
        13           As  tau(  13) = (   0.7500000   0.1443376   2.6100335  )
        14           As  tau(  14) = (  -0.2500001   0.7216878   3.0182815  )
        15           As  tau(  15) = (   0.2499999   0.4330127   2.2017852  )
        16           As  tau(  16) = (   0.0000000   0.0000000   2.2017852  )
        17           As  tau(  17) = (   0.0000000   0.5773504   2.6100335  )
        18           As  tau(  18) = (   0.5000000   0.2886751   3.0182815  )
        19           As  tau(  19) = (   0.2500000   0.1443376   2.6100335  )
        20           As  tau(  20) = (   0.2500000   0.7216878   3.0182815  )
        21           As  tau(  21) = (  -0.2500000   0.4330127   2.2017852  )
        22           As  tau(  22) = (   0.4999999   0.5773504   2.6100335  )
        23           As  tau(  23) = (  -0.0000001   0.2886751   3.0182815  )
        24           As  tau(  24) = (   0.5000000   0.0000000   2.2017852  )

     number of k points=    50  Fermi-Dirac smearing, width (Ry)=  0.0000
                       cart. coord. in units 2pi/alat
        k(    1) = (   0.0500000   0.0866025   0.0000000), wk =   0.0400000
        k(    2) = (   0.0500000   0.2020726   0.0000000), wk =   0.0400000
        k(    3) = (   0.0500000   0.3175426   0.0000000), wk =   0.0400000
        k(    4) = (   0.0500000   0.4330127   0.0000000), wk =   0.0400000
        k(    5) = (   0.0500000   0.5484828   0.0000000), wk =   0.0400000
        k(    6) = (   0.0500000  -0.4907477   0.0000000), wk =   0.0400000
        k(    7) = (   0.0500000  -0.3752777   0.0000000), wk =   0.0400000
        k(    8) = (   0.0500000  -0.2598076   0.0000000), wk =   0.0400000
        k(    9) = (   0.0500000  -0.1443376   0.0000000), wk =   0.0400000
        k(   10) = (   0.0500000  -0.0288675   0.0000000), wk =   0.0400000
        k(   11) = (   0.1500000   0.1443376   0.0000000), wk =   0.0400000
        k(   12) = (   0.1500000   0.2598076   0.0000000), wk =   0.0400000
        k(   13) = (   0.1500000   0.3752777   0.0000000), wk =   0.0400000
        k(   14) = (   0.1500000   0.4907477   0.0000000), wk =   0.0400000
        k(   15) = (   0.1500000   0.6062178   0.0000000), wk =   0.0400000
        k(   16) = (   0.1500000  -0.4330127   0.0000000), wk =   0.0400000
        k(   17) = (   0.1500000  -0.3175426   0.0000000), wk =   0.0400000
        k(   18) = (   0.1500000  -0.2020726   0.0000000), wk =   0.0400000
        k(   19) = (   0.1500000  -0.0866025   0.0000000), wk =   0.0400000
        k(   20) = (   0.1500000   0.0288675   0.0000000), wk =   0.0400000
        k(   21) = (   0.2500000   0.2020726   0.0000000), wk =   0.0400000
        k(   22) = (   0.2500000   0.3175426   0.0000000), wk =   0.0400000
        k(   23) = (   0.2500000   0.4330127   0.0000000), wk =   0.0400000
        k(   24) = (   0.2500000   0.5484828   0.0000000), wk =   0.0400000
        k(   25) = (   0.2500000   0.6639528   0.0000000), wk =   0.0400000
        k(   26) = (   0.2500000  -0.3752777   0.0000000), wk =   0.0400000
        k(   27) = (   0.2500000  -0.2598076   0.0000000), wk =   0.0400000
        k(   28) = (   0.2500000  -0.1443376   0.0000000), wk =   0.0400000
        k(   29) = (   0.2500000  -0.0288675   0.0000000), wk =   0.0400000
        k(   30) = (   0.2500000   0.0866025   0.0000000), wk =   0.0400000
        k(   31) = (   0.3500000   0.2598076   0.0000000), wk =   0.0400000
        k(   32) = (   0.3500000   0.3752777   0.0000000), wk =   0.0400000
        k(   33) = (   0.3500000   0.4907477   0.0000000), wk =   0.0400000
        k(   34) = (   0.3500000   0.6062178   0.0000000), wk =   0.0400000
        k(   35) = (   0.3500000   0.7216878   0.0000000), wk =   0.0400000
        k(   36) = (   0.3500000  -0.3175426   0.0000000), wk =   0.0400000
        k(   37) = (   0.3500000  -0.2020726   0.0000000), wk =   0.0400000
        k(   38) = (   0.3500000  -0.0866025   0.0000000), wk =   0.0400000
        k(   39) = (   0.3500000   0.0288675   0.0000000), wk =   0.0400000
        k(   40) = (   0.3500000   0.1443376   0.0000000), wk =   0.0400000
        k(   41) = (   0.4500000   0.3175426   0.0000000), wk =   0.0400000
        k(   42) = (   0.4500000   0.4330127   0.0000000), wk =   0.0400000
        k(   43) = (   0.4500000   0.5484828   0.0000000), wk =   0.0400000
        k(   44) = (   0.4500000   0.6639528   0.0000000), wk =   0.0400000
        k(   45) = (   0.4500000   0.7794229   0.0000000), wk =   0.0400000
        k(   46) = (   0.4500000  -0.2598076   0.0000000), wk =   0.0400000
        k(   47) = (   0.4500000  -0.1443376   0.0000000), wk =   0.0400000
        k(   48) = (   0.4500000  -0.0288675   0.0000000), wk =   0.0400000
        k(   49) = (   0.4500000   0.0866025   0.0000000), wk =   0.0400000
        k(   50) = (   0.4500000   0.2020726   0.0000000), wk =   0.0400000

     Dense  grid:  1492917 G-vectors     FFT dimensions: (  90,  90, 432)

     Estimated max dynamical RAM per process >     508.21 MB

     Estimated total dynamical RAM >      68.98 GB

     Initial potential from superposition of free atoms

     starting charge     335.9650, renormalised to     336.0000

     negative rho (up, down):  1.366E-04 0.000E+00

     Adding external electric field

     Computed dipole along edir(3) : 
        Dipole               -0.0747 Ry au,         -0.1897 Debye
        Dipole field         -0.0001 Ry au, 

        E field amplitude [Ha a.u.]: -1.0000E-03
        Potential amp.       -0.1135 Ry
        Total length         60.4102 bohr

     Starting wfcs are  216 atomic wfcs

     total cpu time spent up to now is       17.5 secs

     Self-consistent Calculation

     iteration #  1     ecut=    80.00 Ry     beta= 0.70
     Davidson diagonalization with overlap
     ethr =  1.00E-02,  avg # of iterations =  3.0

     Threshold (ethr) on eigenvalues was too large:
     Diagonalizing with lowered threshold

     Davidson diagonalization with overlap
     ethr =  6.07E-04,  avg # of iterations =  2.0

     negative rho (up, down):  3.374E-05 0.000E+00

     Adding external electric field

     Computed dipole along edir(3) : 
        Dipole              -13.2008 Ry au,        -33.5531 Debye
        Dipole field         -0.0107 Ry au, 

        E field amplitude [Ha a.u.]: -1.0000E-03
        Potential amp.        1.1770 Ry
        Total length         60.4102 bohr


     total cpu time spent up to now is       73.5 secs

     total energy              =   -4145.27405861 Ry
     estimated scf accuracy    <       2.02637765 Ry

     iteration #  2     ecut=    80.00 Ry     beta= 0.70
     Davidson diagonalization with overlap
     ethr =  6.03E-04,  avg # of iterations = 16.7

     negative rho (up, down):  1.473E-05 0.000E+00

     Adding external electric field

     Computed dipole along edir(3) : 
        Dipole                3.4277 Ry au,          8.7123 Debye
        Dipole field          0.0028 Ry au, 

        E field amplitude [Ha a.u.]: -1.0000E-03
        Potential amp.       -0.4578 Ry
        Total length         60.4102 bohr


     total cpu time spent up to now is      152.7 secs

     total energy              =   -4108.33739269 Ry
     estimated scf accuracy    <    2333.90992767 Ry

     iteration #  3     ecut=    80.00 Ry     beta= 0.70
     Davidson diagonalization with overlap
     ethr =  6.03E-04,  avg # of iterations = 12.0

     negative rho (up, down):  9.522E-06 0.000E+00

     Adding external electric field

     Computed dipole along edir(3) : 
        Dipole                0.5302 Ry au,          1.3477 Debye
        Dipole field          0.0004 Ry au, 

        E field amplitude [Ha a.u.]: -1.0000E-03
        Potential amp.       -0.1729 Ry
        Total length         60.4102 bohr


     total cpu time spent up to now is      211.1 secs

     total energy              =   -4145.90454390 Ry
     estimated scf accuracy    <       3.37196263 Ry

     iteration #  4     ecut=    80.00 Ry     beta= 0.70
     Davidson diagonalization with overlap
     ethr =  6.03E-04,  avg # of iterations =  5.6

     negative rho (up, down):  7.751E-06 0.000E+00

     Adding external electric field

     Computed dipole along edir(3) : 
        Dipole                0.4738 Ry au,          1.2044 Debye
        Dipole field          0.0004 Ry au, 

        E field amplitude [Ha a.u.]: -1.0000E-03
        Potential amp.       -0.1674 Ry
        Total length         60.4102 bohr


     total cpu time spent up to now is      243.6 secs

     total energy              =   -4146.03831043 Ry
     estimated scf accuracy    <      12.93874227 Ry

     iteration #  5     ecut=    80.00 Ry     beta= 0.70
     Davidson diagonalization with overlap
     ethr =  6.03E-04,  avg # of iterations =  3.1

     negative rho (up, down):  3.416E-06 0.000E+00

     Adding external electric field

     Computed dipole along edir(3) : 
        Dipole                1.1515 Ry au,          2.9269 Debye
        Dipole field          0.0009 Ry au, 

        E field amplitude [Ha a.u.]: -1.0000E-03
        Potential amp.       -0.2340 Ry
        Total length         60.4102 bohr


     total cpu time spent up to now is      271.9 secs

     total energy              =   -4146.55475702 Ry
     estimated scf accuracy    <       3.76095382 Ry

     iteration #  6     ecut=    80.00 Ry     beta= 0.70
     Davidson diagonalization with overlap
     ethr =  6.03E-04,  avg # of iterations =  1.1

     negative rho (up, down):  4.077E-07 0.000E+00

     Adding external electric field

     Computed dipole along edir(3) : 
        Dipole                1.2870 Ry au,          3.2713 Debye
        Dipole field          0.0010 Ry au, 

        E field amplitude [Ha a.u.]: -1.0000E-03
        Potential amp.       -0.2474 Ry
        Total length         60.4102 bohr


     total cpu time spent up to now is      297.2 secs

     total energy              =   -4146.61389192 Ry
     estimated scf accuracy    <       0.58154298 Ry

     iteration #  7     ecut=    80.00 Ry     beta= 0.70
     Davidson diagonalization with overlap
     ethr =  1.73E-04,  avg # of iterations =  1.8

     Adding external electric field

     Computed dipole along edir(3) : 
        Dipole                1.2747 Ry au,          3.2399 Debye
        Dipole field          0.0010 Ry au, 

        E field amplitude [Ha a.u.]: -1.0000E-03
        Potential amp.       -0.2461 Ry
        Total length         60.4102 bohr


     total cpu time spent up to now is      323.2 secs

     total energy              =   -4146.61926165 Ry
     estimated scf accuracy    <       0.10092623 Ry

     iteration #  8     ecut=    80.00 Ry     beta= 0.70
     Davidson diagonalization with overlap
     c_bands:  1 eigenvalues not converged
     ethr =  3.00E-05,  avg # of iterations =  9.4

     Adding external electric field

     Computed dipole along edir(3) : 
        Dipole                1.1017 Ry au,          2.8003 Debye
        Dipole field          0.0009 Ry au, 

        E field amplitude [Ha a.u.]: -1.0000E-03
        Potential amp.       -0.2291 Ry
        Total length         60.4102 bohr


     total cpu time spent up to now is      357.2 secs

     total energy              =   -4146.61770864 Ry
     estimated scf accuracy    <       0.04590191 Ry

     iteration #  9     ecut=    80.00 Ry     beta= 0.70
     Davidson diagonalization with overlap
     ethr =  1.37E-05,  avg # of iterations =  3.7

     Adding external electric field

     Computed dipole along edir(3) : 
        Dipole                0.9504 Ry au,          2.4157 Debye
        Dipole field          0.0008 Ry au, 

        E field amplitude [Ha a.u.]: -1.0000E-03
        Potential amp.       -0.2143 Ry
        Total length         60.4102 bohr


     total cpu time spent up to now is      385.7 secs

     total energy              =   -4146.61525374 Ry
     estimated scf accuracy    <       0.05258583 Ry

     iteration # 10     ecut=    80.00 Ry     beta= 0.70
     Davidson diagonalization with overlap
     ethr =  1.37E-05,  avg # of iterations =  1.9

     negative rho (up, down):  3.212E-08 0.000E+00

     Adding external electric field

     Computed dipole along edir(3) : 
        Dipole                0.8795 Ry au,          2.2354 Debye
        Dipole field          0.0007 Ry au, 

        E field amplitude [Ha a.u.]: -1.0000E-03
        Potential amp.       -0.2073 Ry
        Total length         60.4102 bohr


     total cpu time spent up to now is      412.0 secs

     total energy              =   -4146.61437280 Ry
     estimated scf accuracy    <       0.03051243 Ry

     iteration # 11     ecut=    80.00 Ry     beta= 0.70
     Davidson diagonalization with overlap
     ethr =  9.08E-06,  avg # of iterations =  1.6

     negative rho (up, down):  3.078E-06 0.000E+00

     Adding external electric field

     Computed dipole along edir(3) : 
        Dipole               -0.9224 Ry au,         -2.3446 Debye
        Dipole field         -0.0008 Ry au, 

        E field amplitude [Ha a.u.]: -1.0000E-03
        Potential amp.       -0.0301 Ry
        Total length         60.4102 bohr


     total cpu time spent up to now is      437.8 secs

     total energy              =   -4146.59955309 Ry
     estimated scf accuracy    <       0.02663633 Ry

     iteration # 12     ecut=    80.00 Ry     beta= 0.70
     Davidson diagonalization with overlap
     ethr =  7.93E-06,  avg # of iterations = 15.8

     negative rho (up, down):  1.112E-06 0.000E+00

     Adding external electric field

     Computed dipole along edir(3) : 
        Dipole               -0.8981 Ry au,         -2.2828 Debye
        Dipole field         -0.0007 Ry au, 

        E field amplitude [Ha a.u.]: -1.0000E-03
        Potential amp.       -0.0325 Ry
        Total length         60.4102 bohr


     total cpu time spent up to now is      478.1 secs

     total energy              =   -4146.60191027 Ry
     estimated scf accuracy    <       0.00905307 Ry

     iteration # 13     ecut=    80.00 Ry     beta= 0.70
     Davidson diagonalization with overlap
     ethr =  2.69E-06,  avg # of iterations = 10.4

     negative rho (up, down):  6.255E-07 0.000E+00

     Adding external electric field

     Computed dipole along edir(3) : 
        Dipole               -0.9010 Ry au,         -2.2902 Debye
        Dipole field         -0.0007 Ry au, 

        E field amplitude [Ha a.u.]: -1.0000E-03
        Potential amp.       -0.0322 Ry
        Total length         60.4102 bohr


     total cpu time spent up to now is      511.7 secs

     total energy              =   -4146.60209594 Ry
     estimated scf accuracy    <       0.01221054 Ry

     iteration # 14     ecut=    80.00 Ry     beta= 0.70
     Davidson diagonalization with overlap
     ethr =  2.69E-06,  avg # of iterations =  1.5

     negative rho (up, down):  4.636E-07 0.000E+00

     Adding external electric field

     Computed dipole along edir(3) : 
        Dipole               -0.9332 Ry au,         -2.3718 Debye
        Dipole field         -0.0008 Ry au, 

        E field amplitude [Ha a.u.]: -1.0000E-03
        Potential amp.       -0.0291 Ry
        Total length         60.4102 bohr


     total cpu time spent up to now is      537.9 secs

     total energy              =   -4146.60268854 Ry
     estimated scf accuracy    <       0.00176694 Ry

     iteration # 15     ecut=    80.00 Ry     beta= 0.70
     Davidson diagonalization with overlap
     c_bands:  1 eigenvalues not converged
     c_bands:  1 eigenvalues not converged
     c_bands:  1 eigenvalues not converged
     ethr =  5.26E-07,  avg # of iterations = 12.0

     negative rho (up, down):  2.612E-07 0.000E+00

     Adding external electric field

     Computed dipole along edir(3) : 
        Dipole               -0.9382 Ry au,         -2.3846 Debye
        Dipole field         -0.0008 Ry au, 

        E field amplitude [Ha a.u.]: -1.0000E-03
        Potential amp.       -0.0286 Ry
        Total length         60.4102 bohr


     total cpu time spent up to now is      570.8 secs

     total energy              =   -4146.60282323 Ry
     estimated scf accuracy    <       0.00010016 Ry

     iteration # 16     ecut=    80.00 Ry     beta= 0.70
     Davidson diagonalization with overlap
     c_bands:  1 eigenvalues not converged
     c_bands:  1 eigenvalues not converged
     ethr =  2.98E-08,  avg # of iterations =  3.8

     negative rho (up, down):  1.243E-07 0.000E+00

     Adding external electric field

     Computed dipole along edir(3) : 
        Dipole               -0.9404 Ry au,         -2.3903 Debye
        Dipole field         -0.0008 Ry au, 

        E field amplitude [Ha a.u.]: -1.0000E-03
        Potential amp.       -0.0284 Ry
        Total length         60.4102 bohr


     total cpu time spent up to now is      601.6 secs

     total energy              =   -4146.60282334 Ry
     estimated scf accuracy    <       0.00024963 Ry

     iteration # 17     ecut=    80.00 Ry     beta= 0.70
     Davidson diagonalization with overlap
     ethr =  2.98E-08,  avg # of iterations =  4.3

     negative rho (up, down):  4.470E-08 0.000E+00

     Adding external electric field

     Computed dipole along edir(3) : 
        Dipole               -0.9378 Ry au,         -2.3837 Debye
        Dipole field         -0.0008 Ry au, 

        E field amplitude [Ha a.u.]: -1.0000E-03
        Potential amp.       -0.0286 Ry
        Total length         60.4102 bohr


     total cpu time spent up to now is      632.7 secs

     total energy              =   -4146.60284023 Ry
     estimated scf accuracy    <       0.00026063 Ry

     iteration # 18     ecut=    80.00 Ry     beta= 0.70
     Davidson diagonalization with overlap
     c_bands:  1 eigenvalues not converged
     c_bands:  1 eigenvalues not converged
     ethr =  2.98E-08,  avg # of iterations = 13.0

     negative rho (up, down):  4.201E-08 0.000E+00

     Adding external electric field

     Computed dipole along edir(3) : 
        Dipole               -0.9376 Ry au,         -2.3832 Debye
        Dipole field         -0.0008 Ry au, 

        E field amplitude [Ha a.u.]: -1.0000E-03
        Potential amp.       -0.0286 Ry
        Total length         60.4102 bohr


     total cpu time spent up to now is      665.4 secs

     total energy              =   -4146.60284291 Ry
     estimated scf accuracy    <       0.00002615 Ry

     iteration # 19     ecut=    80.00 Ry     beta= 0.70
     Davidson diagonalization with overlap
     ethr =  7.78E-09,  avg # of iterations =  2.2

     negative rho (up, down):  1.885E-08 0.000E+00

     Adding external electric field

     Computed dipole along edir(3) : 
        Dipole               -0.9380 Ry au,         -2.3840 Debye
        Dipole field         -0.0008 Ry au, 

        E field amplitude [Ha a.u.]: -1.0000E-03
        Potential amp.       -0.0286 Ry
        Total length         60.4102 bohr


     total cpu time spent up to now is      693.9 secs

     total energy              =   -4146.60284423 Ry
     estimated scf accuracy    <       0.00004650 Ry

     iteration # 20     ecut=    80.00 Ry     beta= 0.70
     Davidson diagonalization with overlap
     ethr =  7.78E-09,  avg # of iterations =  1.8

     negative rho (up, down):  1.044E-08 0.000E+00

     Adding external electric field

     Computed dipole along edir(3) : 
        Dipole               -0.9387 Ry au,         -2.3859 Debye
        Dipole field         -0.0008 Ry au, 

        E field amplitude [Ha a.u.]: -1.0000E-03
        Potential amp.       -0.0285 Ry
        Total length         60.4102 bohr


     total cpu time spent up to now is      721.2 secs

     total energy              =   -4146.60284424 Ry
     estimated scf accuracy    <       0.00002000 Ry

     iteration # 21     ecut=    80.00 Ry     beta= 0.70
     Davidson diagonalization with overlap
     ethr =  5.95E-09,  avg # of iterations =  2.6

     Adding external electric field

     Computed dipole along edir(3) : 
        Dipole               -0.9389 Ry au,         -2.3864 Debye
        Dipole field         -0.0008 Ry au, 

        E field amplitude [Ha a.u.]: -1.0000E-03
        Potential amp.       -0.0285 Ry
        Total length         60.4102 bohr


     total cpu time spent up to now is      750.7 secs

     total energy              =   -4146.60284422 Ry
     estimated scf accuracy    <       0.00000648 Ry

     iteration # 22     ecut=    80.00 Ry     beta= 0.70
     Davidson diagonalization with overlap
     ethr =  1.93E-09,  avg # of iterations =  1.6

     Adding external electric field

     Computed dipole along edir(3) : 
        Dipole               -0.9389 Ry au,         -2.3865 Debye
        Dipole field         -0.0008 Ry au, 

        E field amplitude [Ha a.u.]: -1.0000E-03
        Potential amp.       -0.0285 Ry
        Total length         60.4102 bohr


     total cpu time spent up to now is      777.3 secs

     total energy              =   -4146.60284438 Ry
     estimated scf accuracy    <       0.00000503 Ry

     iteration # 23     ecut=    80.00 Ry     beta= 0.70
     Davidson diagonalization with overlap
     ethr =  1.50E-09,  avg # of iterations =  1.4

     Adding external electric field

     Computed dipole along edir(3) : 
        Dipole               -0.9389 Ry au,         -2.3864 Debye
        Dipole field         -0.0008 Ry au, 

        E field amplitude [Ha a.u.]: -1.0000E-03
        Potential amp.       -0.0285 Ry
        Total length         60.4102 bohr


     total cpu time spent up to now is      803.1 secs

     total energy              =   -4146.60284442 Ry
     estimated scf accuracy    <       0.00000038 Ry

     iteration # 24     ecut=    80.00 Ry     beta= 0.70
     Davidson diagonalization with overlap
     ethr =  1.14E-10,  avg # of iterations =  7.8

     Adding external electric field

     Computed dipole along edir(3) : 
        Dipole               -0.9389 Ry au,         -2.3864 Debye
        Dipole field         -0.0008 Ry au, 

        E field amplitude [Ha a.u.]: -1.0000E-03
        Potential amp.       -0.0285 Ry
        Total length         60.4102 bohr


     total cpu time spent up to now is      835.1 secs

     total energy              =   -4146.60284442 Ry
     estimated scf accuracy    <       0.00000009 Ry

     iteration # 25     ecut=    80.00 Ry     beta= 0.70
     Davidson diagonalization with overlap
     ethr =  2.54E-11,  avg # of iterations =  3.3

     Adding external electric field

     Computed dipole along edir(3) : 
        Dipole               -0.9389 Ry au,         -2.3865 Debye
        Dipole field         -0.0008 Ry au, 

        E field amplitude [Ha a.u.]: -1.0000E-03
        Potential amp.       -0.0285 Ry
        Total length         60.4102 bohr


     total cpu time spent up to now is      864.0 secs

     total energy              =   -4146.60284441 Ry
     estimated scf accuracy    <       0.00000044 Ry

     iteration # 26     ecut=    80.00 Ry     beta= 0.70
     Davidson diagonalization with overlap
     ethr =  2.54E-11,  avg # of iterations =  1.4

     Adding external electric field

     Computed dipole along edir(3) : 
        Dipole               -0.9389 Ry au,         -2.3864 Debye
        Dipole field         -0.0008 Ry au, 

        E field amplitude [Ha a.u.]: -1.0000E-03
        Potential amp.       -0.0285 Ry
        Total length         60.4102 bohr


     total cpu time spent up to now is      890.0 secs

     total energy              =   -4146.60284442 Ry
     estimated scf accuracy    <       0.00000004 Ry

     iteration # 27     ecut=    80.00 Ry     beta= 0.70
     Davidson diagonalization with overlap
     ethr =  1.05E-11,  avg # of iterations =  1.1

     Adding external electric field

     Computed dipole along edir(3) : 
        Dipole               -0.9389 Ry au,         -2.3864 Debye
        Dipole field         -0.0008 Ry au, 

        E field amplitude [Ha a.u.]: -1.0000E-03
        Potential amp.       -0.0285 Ry
        Total length         60.4102 bohr


     total cpu time spent up to now is      915.0 secs

     total energy              =   -4146.60284442 Ry
     estimated scf accuracy    <       0.00000004 Ry

     iteration # 28     ecut=    80.00 Ry     beta= 0.70
     Davidson diagonalization with overlap
     ethr =  1.05E-11,  avg # of iterations =  1.0

     Adding external electric field

     Computed dipole along edir(3) : 
        Dipole               -0.9389 Ry au,         -2.3864 Debye
        Dipole field         -0.0008 Ry au, 

        E field amplitude [Ha a.u.]: -1.0000E-03
        Potential amp.       -0.0285 Ry
        Total length         60.4102 bohr


     total cpu time spent up to now is      939.3 secs

     total energy              =   -4146.60284442 Ry
     estimated scf accuracy    <          5.3E-09 Ry

     iteration # 29     ecut=    80.00 Ry     beta= 0.70
     Davidson diagonalization with overlap
     ethr =  1.57E-12,  avg # of iterations =  1.0

     Adding external electric field

     Computed dipole along edir(3) : 
        Dipole               -0.9389 Ry au,         -2.3864 Debye
        Dipole field         -0.0008 Ry au, 

        E field amplitude [Ha a.u.]: -1.0000E-03
        Potential amp.       -0.0285 Ry
        Total length         60.4102 bohr


     total cpu time spent up to now is      963.7 secs

     total energy              =   -4146.60284442 Ry
     estimated scf accuracy    <          1.4E-09 Ry

     iteration # 30     ecut=    80.00 Ry     beta= 0.70
     Davidson diagonalization with overlap
     ethr =  4.05E-13,  avg # of iterations =  1.0

     Adding external electric field

     Computed dipole along edir(3) : 
        Dipole               -0.9388 Ry au,         -2.3862 Debye
        Dipole field         -0.0008 Ry au, 

        E field amplitude [Ha a.u.]: -1.0000E-03
        Potential amp.       -0.0285 Ry
        Total length         60.4102 bohr


     total cpu time spent up to now is      988.1 secs

     End of self-consistent calculation

          k = 0.0500 0.0866 0.0000 (186449 PWs)   bands (ev):

   -37.2361 -37.2361 -37.2361 -37.2361 -37.2360 -37.2353 -37.2353 -37.2353
   -37.0470 -37.0468 -37.0468 -37.0467 -37.0457 -37.0457 -37.0456 -37.0455
   -36.9872 -36.9867 -36.9867 -36.9867 -36.7190 -36.7185 -36.7185 -36.7185
   -36.7074 -36.7073 -36.7073 -36.7070 -36.7070 -36.7070 -36.7070 -36.7069
   -36.6856 -36.6856 -36.6856 -36.6855 -36.6855 -36.6845 -36.6845 -36.6845
   -36.5915 -36.5915 -36.5914 -36.5914 -36.5914 -36.5903 -36.5903 -36.5903
   -36.5498 -36.5497 -36.5497 -36.5495 -36.5495 -36.5495 -36.5494 -36.5494
   -36.5460 -36.5454 -36.5454 -36.5454 -16.6488 -16.6488 -16.6485 -16.6472
   -16.6469 -16.6330 -16.6330 -16.6330 -16.5183 -16.5155 -16.5155 -16.5155
   -16.5080 -16.5070 -16.5070 -16.5023 -16.5023 -16.5014 -16.5010 -16.4997
   -16.3258 -16.3256 -16.3256 -16.3114 -16.2778 -16.2777 -16.2777 -16.2684
   -16.2676 -16.2488 -16.2488 -16.2487 -16.2217 -16.2217 -16.2216 -16.2119
   -16.2116 -16.2058 -16.2058 -16.2058 -16.0505 -16.0503 -16.0503 -16.0072
   -15.9899 -15.9894 -15.9655 -15.9655 -15.9655 -15.9643 -15.9643 -15.9639
   -15.9287 -15.9286 -15.9286 -15.9159 -15.9158 -15.9158 -15.9157 -15.9155
   -13.5708 -12.8668 -12.1711 -12.1711 -12.1208 -11.8344 -11.8344 -11.8158
   -11.5091 -11.1862 -11.1858 -11.1858  -8.0189  -7.8411  -7.8242  -7.8242
    -7.4951  -7.4431  -7.4431  -6.5290  -6.5290  -6.5104  -6.1786  -4.3776
    -4.3723  -4.3723  -4.0953  -3.7931  -3.7245  -3.7245  -3.3928  -3.2585
    -3.2585  -3.0482  -3.0376  -3.0376  -2.9548  -2.9548  -2.9150  -2.5669
    -2.3981  -2.2740  -2.2740  -2.2644  -2.1044  -1.9973  -1.8860  -1.7560
    -1.7079  -1.7079  -1.0087  -0.9530  -0.9530  -0.4998  -0.3878  -0.3170
    -0.1145   0.3692   0.3692   0.4799   0.6266   0.6267   0.7222   1.3667
     1.4935   1.4935   1.5971   1.6638   1.6821   1.6821   2.1921   2.3712
     2.6982   2.7336   2.7336   2.7700   3.0916   3.1901   3.2990   3.3304
     3.3872   3.4110

          k = 0.0500 0.2021 0.0000 (186558 PWs)   bands (ev):

   -37.2361 -37.2361 -37.2360 -37.2360 -37.2360 -37.2354 -37.2354 -37.2354
   -37.0470 -37.0468 -37.0468 -37.0467 -37.0457 -37.0457 -37.0456 -37.0455
   -36.9871 -36.9868 -36.9868 -36.9867 -36.7190 -36.7185 -36.7185 -36.7185
   -36.7074 -36.7073 -36.7073 -36.7070 -36.7070 -36.7070 -36.7070 -36.7070
   -36.6856 -36.6856 -36.6855 -36.6855 -36.6855 -36.6845 -36.6845 -36.6845
   -36.5915 -36.5914 -36.5914 -36.5914 -36.5913 -36.5904 -36.5904 -36.5903
   -36.5498 -36.5497 -36.5497 -36.5495 -36.5495 -36.5494 -36.5494 -36.5494
   -36.5460 -36.5455 -36.5454 -36.5454 -16.6487 -16.6482 -16.6476 -16.6473
   -16.6460 -16.6338 -16.6337 -16.6336 -16.5181 -16.5156 -16.5155 -16.5155
   -16.5078 -16.5068 -16.5066 -16.5024 -16.5021 -16.5017 -16.5012 -16.5000
   -16.3246 -16.3244 -16.3242 -16.3115 -16.2783 -16.2781 -16.2778 -16.2699
   -16.2662 -16.2497 -16.2494 -16.2492 -16.2211 -16.2210 -16.2209 -16.2125
   -16.2115 -16.2067 -16.2065 -16.2064 -16.0496 -16.0489 -16.0481 -16.0110
   -15.9883 -15.9869 -15.9670 -15.9668 -15.9665 -15.9656 -15.9642 -15.9637
   -15.9282 -15.9281 -15.9279 -15.9166 -15.9166 -15.9163 -15.9159 -15.9156
   -13.5129 -12.8156 -12.3251 -12.2128 -12.1038 -11.9028 -11.8445 -11.8002
   -11.4843 -11.1864 -11.1827 -11.1823  -7.9715  -7.8187  -7.7784  -7.7298
    -7.4571  -7.3449  -7.2287  -6.5669  -6.5374  -6.4995  -6.1784  -4.4273
    -4.3873  -4.3871  -4.1884  -3.9489  -3.8518  -3.7326  -3.6679  -3.5263
    -3.2400  -3.0458  -3.0037  -2.9908  -2.9736  -2.8496  -2.8108  -2.8034
    -2.5664  -2.4274  -2.3010  -2.2953  -2.2818  -2.0542  -1.9787  -1.6963
    -1.5915  -1.4815  -1.1768  -1.0610  -0.9199  -0.7185  -0.4238   0.1175
     0.3331   0.4044   0.6640   0.6740   0.8151   0.8966   0.9787   1.2097
     1.2549   1.5485   1.6466   1.7218   1.7648   1.8062   1.8614   2.3776
     2.7212   2.7530   2.8510   2.9231   2.9280   3.0982   3.2304   3.2793
     3.3154   3.3368

          k = 0.0500 0.3175 0.0000 (186601 PWs)   bands (ev):

   -37.2361 -37.2361 -37.2360 -37.2360 -37.2359 -37.2355 -37.2354 -37.2354
   -37.0469 -37.0469 -37.0468 -37.0467 -37.0457 -37.0457 -37.0456 -37.0455
   -36.9871 -36.9868 -36.9868 -36.9867 -36.7189 -36.7186 -36.7185 -36.7184
   -36.7074 -36.7073 -36.7073 -36.7070 -36.7070 -36.7070 -36.7070 -36.7070
   -36.6856 -36.6856 -36.6855 -36.6854 -36.6854 -36.6847 -36.6846 -36.6846
   -36.5914 -36.5914 -36.5913 -36.5913 -36.5912 -36.5905 -36.5904 -36.5904
   -36.5498 -36.5497 -36.5497 -36.5495 -36.5495 -36.5494 -36.5494 -36.5494
   -36.5459 -36.5455 -36.5454 -36.5454 -16.6485 -16.6474 -16.6472 -16.6464
   -16.6446 -16.6353 -16.6348 -16.6348 -16.5177 -16.5158 -16.5155 -16.5155
   -16.5075 -16.5065 -16.5059 -16.5026 -16.5021 -16.5019 -16.5016 -16.5005
   -16.3230 -16.3226 -16.3217 -16.3118 -16.2791 -16.2788 -16.2778 -16.2721
   -16.2639 -16.2512 -16.2502 -16.2499 -16.2202 -16.2200 -16.2198 -16.2136
   -16.2112 -16.2080 -16.2078 -16.2074 -16.0483 -16.0471 -16.0443 -16.0165
   -15.9857 -15.9834 -15.9692 -15.9690 -15.9679 -15.9678 -15.9640 -15.9636
   -15.9274 -15.9273 -15.9268 -15.9182 -15.9176 -15.9171 -15.9160 -15.9158
   -13.4103 -12.7256 -12.5366 -12.2513 -12.0988 -12.0299 -11.8536 -11.7844
   -11.4422 -11.2026 -11.1778 -11.1774  -7.8894  -7.7781  -7.7162  -7.5963
    -7.3785  -7.2220  -6.9628  -6.5377  -6.5052  -6.4921  -6.1961  -4.5502
    -4.4350  -4.4213  -4.4205  -4.1257  -4.0320  -4.0131  -3.8387  -3.5720
    -3.5652  -3.1723  -2.9241  -2.9021  -2.8738  -2.8609  -2.7145  -2.7004
    -2.6952  -2.6767  -2.3291  -2.3289  -2.2747  -2.1638  -2.0678  -1.6012
    -1.4487  -1.3554  -1.2099  -1.1342  -1.0497  -0.8625  -0.4830   0.4649
     0.4720   0.4725   0.7340   0.7425   0.7826   1.2216   1.3787   1.4485
     1.4638   1.6447   1.7022   1.7912   1.8647   1.9102   1.9979   2.3214
     2.5658   2.6877   2.9466   2.9886   3.0070   3.1150   3.1381   3.1717
     3.2641   3.4953

          k = 0.0500 0.4330 0.0000 (186662 PWs)   bands (ev):

   -37.2361 -37.2361 -37.2359 -37.2359 -37.2358 -37.2356 -37.2355 -37.2355
   -37.0469 -37.0469 -37.0468 -37.0468 -37.0457 -37.0456 -37.0456 -37.0456
   -36.9870 -36.9869 -36.9868 -36.9867 -36.7189 -36.7186 -36.7185 -36.7184
   -36.7073 -36.7073 -36.7072 -36.7071 -36.7070 -36.7070 -36.7070 -36.7070
   -36.6856 -36.6856 -36.6854 -36.6853 -36.6852 -36.6848 -36.6847 -36.6847
   -36.5914 -36.5914 -36.5913 -36.5912 -36.5911 -36.5906 -36.5905 -36.5905
   -36.5498 -36.5497 -36.5496 -36.5495 -36.5495 -36.5495 -36.5494 -36.5494
   -36.5458 -36.5456 -36.5454 -36.5454 -16.6483 -16.6476 -16.6460 -16.6450
   -16.6427 -16.6372 -16.6361 -16.6360 -16.5173 -16.5161 -16.5156 -16.5155
   -16.5070 -16.5063 -16.5050 -16.5027 -16.5026 -16.5023 -16.5016 -16.5010
   -16.3214 -16.3209 -16.3188 -16.3128 -16.2799 -16.2796 -16.2776 -16.2744
   -16.2610 -16.2535 -16.2509 -16.2505 -16.2189 -16.2189 -16.2186 -16.2150
   -16.2108 -16.2095 -16.2091 -16.2086 -16.0469 -16.0455 -16.0391 -16.0229
   -15.9822 -15.9796 -15.9724 -15.9708 -15.9706 -15.9691 -15.9639 -15.9635
   -15.9266 -15.9265 -15.9252 -15.9201 -15.9187 -15.9180 -15.9161 -15.9159
   -13.2662 -12.7644 -12.6010 -12.2793 -12.1927 -12.0999 -11.8606 -11.7723
   -11.3871 -11.2404 -11.1741 -11.1724  -7.7798  -7.7351  -7.6584  -7.5380
    -7.2937  -7.1099  -6.7540  -6.5309  -6.4884  -6.2650  -6.1723  -4.8724
    -4.6819  -4.4704  -4.4398  -4.4077  -4.1913  -4.0831  -4.0598  -4.0076
    -3.4182  -3.0932  -3.0296  -2.9032  -2.8220  -2.7936  -2.7572  -2.6067
    -2.6026  -2.5775  -2.4019  -2.3721  -2.3413  -2.1627  -2.1270  -1.6786
    -1.4866  -1.4099  -1.3030  -1.1566  -0.7917  -0.6996  -0.5624   0.0808
     0.3952   0.4139   0.5783   0.8403   1.0134   1.0638   1.6731   1.7764
     1.8163   1.8434   1.9681   1.9856   2.1550   2.1925   2.1947   2.3852
     2.5534   2.5841   2.7852   2.8528   3.1958   3.2121   3.3454   3.3860
     3.5911   3.7419

          k = 0.0500 0.5485 0.0000 (186672 PWs)   bands (ev):

   -37.2361 -37.2361 -37.2359 -37.2358 -37.2357 -37.2357 -37.2355 -37.2355
   -37.0469 -37.0469 -37.0468 -37.0468 -37.0456 -37.0456 -37.0456 -37.0456
   -36.9870 -36.9869 -36.9868 -36.9867 -36.7188 -36.7187 -36.7185 -36.7184
   -36.7073 -36.7073 -36.7072 -36.7071 -36.7071 -36.7070 -36.7070 -36.7070
   -36.6856 -36.6856 -36.6853 -36.6852 -36.6850 -36.6850 -36.6848 -36.6847
   -36.5914 -36.5914 -36.5912 -36.5911 -36.5909 -36.5908 -36.5906 -36.5906
   -36.5497 -36.5497 -36.5496 -36.5496 -36.5495 -36.5495 -36.5494 -36.5494
   -36.5457 -36.5457 -36.5454 -36.5454 -16.6480 -16.6479 -16.6452 -16.6441
   -16.6405 -16.6394 -16.6369 -16.6368 -16.5168 -16.5165 -16.5156 -16.5154
   -16.5066 -16.5064 -16.5040 -16.5033 -16.5030 -16.5026 -16.5013 -16.5013
   -16.3205 -16.3200 -16.3159 -16.3146 -16.2804 -16.2800 -16.2769 -16.2762
   -16.2579 -16.2563 -16.2513 -16.2509 -16.2182 -16.2178 -16.2174 -16.2166
   -16.2104 -16.2101 -16.2099 -16.2096 -16.0462 -16.0446 -16.0329 -16.0296
   -15.9783 -15.9762 -15.9758 -15.9740 -15.9717 -15.9698 -15.9639 -15.9635
   -15.9260 -15.9260 -15.9233 -15.9222 -15.9194 -15.9185 -15.9161 -15.9161
   -13.0856 -12.9839 -12.4486 -12.3651 -12.2922 -12.1015 -11.8640 -11.7667
   -11.3255 -11.2950 -11.1722 -11.1698  -7.7110  -7.6579  -7.6282  -7.6018
    -7.2455  -7.0503  -6.5268  -6.5252  -6.4875  -6.4194  -5.6764  -5.4064
    -4.7357  -4.5702  -4.4910  -4.3789  -4.3233  -4.2966  -4.1573  -4.0663
    -3.2338  -3.1330  -3.0658  -3.0609  -2.7405  -2.7164  -2.6148  -2.5658
    -2.5460  -2.5282  -2.4630  -2.4036  -2.4003  -2.3100  -1.8858  -1.7820
    -1.7410  -1.5757  -1.1805  -1.0367  -0.6998  -0.6533  -0.2262  -0.1507
     0.0136   0.1832   0.7325   0.8274   0.9654   1.0179   1.9304   1.9359
     1.9681   1.9873   2.0447   2.0840   2.1034   2.1377   2.3963   2.4716
     2.5814   2.6089   3.0077   3.3117   3.3200   3.3365   3.4404   3.6599
     3.7422   3.9366

          k = 0.0500-0.4907 0.0000 (186681 PWs)   bands (ev):

   -37.2361 -37.2361 -37.2359 -37.2359 -37.2358 -37.2356 -37.2355 -37.2355
   -37.0469 -37.0469 -37.0468 -37.0468 -37.0457 -37.0456 -37.0456 -37.0456
   -36.9870 -36.9869 -36.9868 -36.9867 -36.7188 -36.7187 -36.7185 -36.7184
   -36.7073 -36.7073 -36.7072 -36.7071 -36.7071 -36.7070 -36.7070 -36.7070
   -36.6856 -36.6856 -36.6853 -36.6853 -36.6851 -36.6849 -36.6847 -36.6847
   -36.5914 -36.5914 -36.5912 -36.5912 -36.5910 -36.5907 -36.5905 -36.5905
   -36.5497 -36.5497 -36.5496 -36.5496 -36.5495 -36.5494 -36.5494 -36.5494
   -36.5458 -36.5456 -36.5454 -36.5454 -16.6481 -16.6477 -16.6454 -16.6444
   -16.6416 -16.6383 -16.6366 -16.6365 -16.5170 -16.5163 -16.5156 -16.5154
   -16.5066 -16.5064 -16.5044 -16.5032 -16.5030 -16.5023 -16.5016 -16.5009
   -16.3208 -16.3203 -16.3173 -16.3136 -16.2802 -16.2799 -16.2773 -16.2754
   -16.2594 -16.2549 -16.2511 -16.2508 -16.2185 -16.2181 -16.2181 -16.2158
   -16.2104 -16.2101 -16.2096 -16.2091 -16.0465 -16.0449 -16.0361 -16.0263
   -15.9802 -15.9778 -15.9743 -15.9722 -15.9714 -15.9696 -15.9639 -15.9635
   -15.9262 -15.9262 -15.9243 -15.9212 -15.9192 -15.9183 -15.9161 -15.9160
   -13.1800 -12.8763 -12.5277 -12.2878 -12.2791 -12.1009 -11.8628 -11.7686
   -11.3566 -11.2662 -11.1729 -11.1707  -7.7194  -7.7189  -7.6387  -7.5583
    -7.2625  -7.0711  -6.6425  -6.5273  -6.4877  -6.3307  -5.9352  -5.1348
    -4.7201  -4.5113  -4.4864  -4.4240  -4.2705  -4.1727  -4.1366  -4.0647
    -3.3300  -3.0727  -3.0644  -3.0108  -2.7729  -2.7461  -2.6914  -2.5791
    -2.5652  -2.4927  -2.4391  -2.4359  -2.3917  -2.2293  -2.0150  -1.7440
    -1.5818  -1.5423  -1.2295  -1.0836  -0.7459  -0.6068  -0.4674  -0.0663
     0.2367   0.2603   0.6491   0.9031   0.9308   1.0467   1.8371   1.8523
     1.9023   1.9224   2.0676   2.0845   2.1141   2.1473   2.3760   2.4859
     2.5483   2.6093   2.8073   3.0307   3.2706   3.2950   3.4826   3.5290
     3.6941   3.8785

          k = 0.0500-0.3753 0.0000 (186663 PWs)   bands (ev):

   -37.2361 -37.2361 -37.2359 -37.2359 -37.2359 -37.2355 -37.2354 -37.2354
   -37.0469 -37.0469 -37.0468 -37.0468 -37.0457 -37.0457 -37.0456 -37.0455
   -36.9871 -36.9868 -36.9868 -36.9867 -36.7189 -36.7186 -36.7185 -36.7184
   -36.7073 -36.7073 -36.7073 -36.7071 -36.7071 -36.7070 -36.7070 -36.7070
   -36.6856 -36.6856 -36.6854 -36.6854 -36.6853 -36.6847 -36.6847 -36.6846
   -36.5914 -36.5914 -36.5913 -36.5912 -36.5911 -36.5906 -36.5905 -36.5905
   -36.5498 -36.5497 -36.5497 -36.5495 -36.5495 -36.5494 -36.5494 -36.5494
   -36.5459 -36.5456 -36.5454 -36.5454 -16.6484 -16.6475 -16.6465 -16.6457
   -16.6437 -16.6362 -16.6355 -16.6354 -16.5175 -16.5160 -16.5156 -16.5154
   -16.5071 -16.5065 -16.5054 -16.5031 -16.5022 -16.5019 -16.5019 -16.5005
   -16.3221 -16.3217 -16.3203 -16.3122 -16.2795 -16.2792 -16.2778 -16.2733
   -16.2625 -16.2523 -16.2506 -16.2503 -16.2195 -16.2194 -16.2192 -16.2143
   -16.2110 -16.2088 -16.2085 -16.2080 -16.0476 -16.0462 -16.0418 -16.0197
   -15.9840 -15.9816 -15.9708 -15.9700 -15.9691 -15.9685 -15.9640 -15.9636
   -15.9269 -15.9269 -15.9260 -15.9192 -15.9182 -15.9175 -15.9161 -15.9158
   -13.3431 -12.6673 -12.6503 -12.2670 -12.1086 -12.0990 -11.8574 -11.7777
   -11.4159 -11.2189 -11.1758 -11.1747  -7.8374  -7.7555  -7.6853  -7.5506
    -7.3342  -7.1621  -6.8558  -6.5348  -6.4897  -6.3709  -6.2216  -4.6338
    -4.6220  -4.4462  -4.4356  -4.2733  -4.1129  -4.0472  -3.9791  -3.8055
    -3.4970  -3.1290  -2.9661  -2.8740  -2.8485  -2.8165  -2.7900  -2.6496
    -2.6495  -2.6469  -2.3632  -2.3501  -2.2491  -2.2161  -2.1098  -1.6136
    -1.4349  -1.3643  -1.2306  -1.2195  -0.9298  -0.8244  -0.5203   0.2660
     0.4995   0.5197   0.5655   0.7830   0.9382   1.1999   1.4618   1.6613
     1.7066   1.7411   1.8097   1.8786   2.0184   2.0934   2.1003   2.2641
     2.5567   2.6127   2.8723   2.8927   3.0859   3.1621   3.2077   3.2564
     3.4169   3.6131

          k = 0.0500-0.2598 0.0000 (186566 PWs)   bands (ev):

   -37.2361 -37.2361 -37.2360 -37.2360 -37.2360 -37.2354 -37.2354 -37.2354
   -37.0469 -37.0469 -37.0468 -37.0467 -37.0457 -37.0457 -37.0456 -37.0455
   -36.9871 -36.9868 -36.9868 -36.9867 -36.7190 -36.7185 -36.7185 -36.7184
   -36.7074 -36.7073 -36.7073 -36.7071 -36.7070 -36.7070 -36.7070 -36.7070
   -36.6856 -36.6856 -36.6855 -36.6854 -36.6854 -36.6846 -36.6846 -36.6846
   -36.5914 -36.5914 -36.5914 -36.5913 -36.5913 -36.5904 -36.5904 -36.5904
   -36.5498 -36.5497 -36.5497 -36.5495 -36.5495 -36.5495 -36.5494 -36.5494
   -36.5459 -36.5455 -36.5454 -36.5454 -16.6486 -16.6476 -16.6473 -16.6471
   -16.6454 -16.6345 -16.6343 -16.6341 -16.5179 -16.5157 -16.5156 -16.5154
   -16.5075 -16.5067 -16.5062 -16.5028 -16.5021 -16.5016 -16.5016 -16.5000
   -16.3238 -16.3236 -16.3230 -16.3116 -16.2787 -16.2784 -16.2778 -16.2710
   -16.2651 -16.2504 -16.2497 -16.2496 -16.2207 -16.2206 -16.2204 -16.2130
   -16.2114 -16.2073 -16.2071 -16.2069 -16.0490 -16.0480 -16.0463 -16.0136
   -15.9871 -15.9852 -15.9680 -15.9679 -15.9672 -15.9665 -15.9641 -15.9636
   -15.9278 -15.9278 -15.9274 -15.9174 -15.9171 -15.9166 -15.9160 -15.9156
   -13.4670 -12.7752 -12.4267 -12.2329 -12.1001 -11.9602 -11.8492 -11.7921
   -11.4652 -11.1918 -11.1801 -11.1801  -7.9345  -7.7997  -7.7484  -7.6620
    -7.4210  -7.2846  -7.0915  -6.5625  -6.5388  -6.4953  -6.1833  -4.4806
    -4.4025  -4.4016  -4.2871  -4.0211  -3.9420  -3.9034  -3.6830  -3.6223
    -3.3147  -3.2117  -2.9672  -2.9511  -2.9275  -2.7814  -2.7516  -2.7503
    -2.7168  -2.5614  -2.3107  -2.3015  -2.3003  -2.0949  -2.0280  -1.6453
    -1.5170  -1.3200  -1.2761  -1.1386  -0.8941  -0.8764  -0.4501   0.3252
     0.4339   0.5717   0.6792   0.6945   0.8375   1.0230   1.1980   1.2423
     1.4299   1.5628   1.5917   1.7756   1.7804   1.8286   1.8972   2.3603
     2.6318   2.7389   2.9233   2.9532   3.0067   3.0796   3.1600   3.1998
     3.2297   3.3990

          k = 0.0500-0.1443 0.0000 (186480 PWs)   bands (ev):

   -37.2361 -37.2361 -37.2361 -37.2360 -37.2360 -37.2353 -37.2353 -37.2353
   -37.0470 -37.0468 -37.0468 -37.0467 -37.0457 -37.0457 -37.0456 -37.0455
   -36.9871 -36.9868 -36.9867 -36.9867 -36.7190 -36.7185 -36.7185 -36.7185
   -36.7074 -36.7073 -36.7073 -36.7070 -36.7070 -36.7070 -36.7070 -36.7069
   -36.6856 -36.6856 -36.6855 -36.6855 -36.6855 -36.6845 -36.6845 -36.6845
   -36.5915 -36.5914 -36.5914 -36.5914 -36.5914 -36.5903 -36.5903 -36.5903
   -36.5498 -36.5497 -36.5497 -36.5495 -36.5495 -36.5495 -36.5494 -36.5494
   -36.5460 -36.5454 -36.5454 -36.5454 -16.6488 -16.6484 -16.6483 -16.6472
   -16.6465 -16.6333 -16.6333 -16.6332 -16.5182 -16.5156 -16.5155 -16.5154
   -16.5079 -16.5070 -16.5068 -16.5025 -16.5022 -16.5013 -16.5012 -16.4997
   -16.3253 -16.3252 -16.3250 -16.3114 -16.2780 -16.2778 -16.2777 -16.2691
   -16.2670 -16.2491 -16.2490 -16.2489 -16.2214 -16.2214 -16.2214 -16.2121
   -16.2116 -16.2062 -16.2061 -16.2060 -16.0502 -16.0497 -16.0494 -16.0088
   -15.9893 -15.9883 -15.9662 -15.9661 -15.9660 -15.9648 -15.9643 -15.9638
   -15.9285 -15.9285 -15.9283 -15.9163 -15.9161 -15.9159 -15.9159 -15.9155
   -13.5475 -12.8462 -12.2374 -12.1918 -12.1105 -11.8605 -11.8396 -11.8083
   -11.4991 -11.1850 -11.1848 -11.1843  -7.9998  -7.8326  -7.8045  -7.7862
    -7.4826  -7.3990  -7.3513  -6.5493  -6.5341  -6.5045  -6.1777  -4.3941
    -4.3782  -4.3772  -4.1284  -3.8699  -3.7745  -3.7019  -3.5568  -3.3800
    -3.2545  -3.0302  -3.0211  -3.0108  -2.9103  -2.8792  -2.8567  -2.7863
    -2.4609  -2.2888  -2.2832  -2.2698  -2.2539  -2.0323  -1.9270  -1.7347
    -1.6571  -1.6131  -1.0851  -0.9944  -0.9397  -0.5888  -0.4023  -0.1144
     0.0937   0.3830   0.4921   0.6416   0.6597   0.7377   0.8706   1.2195
     1.3899   1.5156   1.6257   1.6857   1.7160   1.7330   2.0329   2.3789
     2.7393   2.7455   2.7831   2.8375   2.9908   3.1427   3.3083   3.3242
     3.3535   3.3753

          k = 0.0500-0.0289 0.0000 (186385 PWs)   bands (ev):

   -37.2361 -37.2361 -37.2361 -37.2361 -37.2360 -37.2353 -37.2353 -37.2353
   -37.0470 -37.0468 -37.0468 -37.0467 -37.0457 -37.0457 -37.0456 -37.0455
   -36.9872 -36.9867 -36.9867 -36.9867 -36.7190 -36.7185 -36.7185 -36.7185
   -36.7074 -36.7073 -36.7073 -36.7070 -36.7070 -36.7070 -36.7070 -36.7069
   -36.6856 -36.6856 -36.6856 -36.6856 -36.6855 -36.6845 -36.6845 -36.6845
   -36.5915 -36.5915 -36.5915 -36.5914 -36.5914 -36.5903 -36.5903 -36.5903
   -36.5498 -36.5497 -36.5497 -36.5495 -36.5495 -36.5495 -36.5494 -36.5493
   -36.5460 -36.5454 -36.5454 -36.5454 -16.6488 -16.6488 -16.6488 -16.6471
   -16.6471 -16.6328 -16.6328 -16.6328 -16.5184 -16.5156 -16.5155 -16.5155
   -16.5080 -16.5070 -16.5070 -16.5023 -16.5023 -16.5012 -16.5010 -16.4995
   -16.3260 -16.3259 -16.3259 -16.3115 -16.2777 -16.2777 -16.2776 -16.2682
   -16.2678 -16.2486 -16.2486 -16.2486 -16.2218 -16.2218 -16.2218 -16.2117
   -16.2117 -16.2056 -16.2056 -16.2056 -16.0507 -16.0507 -16.0506 -16.0063
   -15.9902 -15.9901 -15.9653 -15.9653 -15.9652 -15.9643 -15.9641 -15.9641
   -15.9288 -15.9287 -15.9287 -15.9158 -15.9158 -15.9157 -15.9156 -15.9154
   -13.5825 -12.8771 -12.1517 -12.1347 -12.1347 -11.8288 -11.8227 -11.8227
   -11.5142 -11.1869 -11.1869 -11.1867  -8.0286  -7.8425  -7.8425  -7.8372
    -7.4925  -7.4925  -7.4750  -6.5231  -6.5165  -6.5165  -6.1795  -4.3707
    -4.3707  -4.3699  -4.0808  -3.7358  -3.7358  -3.7107  -3.2578  -3.2578
    -3.1972  -3.0527  -3.0527  -3.0361  -3.0195  -2.9775  -2.9775  -2.4336
    -2.3684  -2.2676  -2.2642  -2.2642  -2.0658  -1.9191  -1.8635  -1.7583
    -1.7583  -1.7423  -0.9598  -0.9598  -0.9392  -0.4969  -0.3985  -0.3775
    -0.2459   0.3244   0.3625   0.3625   0.5854   0.6191   0.6191   1.4824
     1.4824   1.5303   1.5805   1.6562   1.6562   1.6620   2.2947   2.3657
     2.6558   2.7129   2.7260   2.7260   3.1547   3.2067   3.2993   3.3168
     3.3534   3.4846

          k = 0.1500 0.1443 0.0000 (186558 PWs)   bands (ev):

   -37.2361 -37.2361 -37.2360 -37.2360 -37.2360 -37.2354 -37.2354 -37.2354
   -37.0470 -37.0468 -37.0468 -37.0467 -37.0457 -37.0457 -37.0456 -37.0455
   -36.9871 -36.9868 -36.9868 -36.9867 -36.7190 -36.7185 -36.7185 -36.7185
   -36.7074 -36.7073 -36.7073 -36.7070 -36.7070 -36.7070 -36.7070 -36.7070
   -36.6856 -36.6856 -36.6855 -36.6855 -36.6855 -36.6845 -36.6845 -36.6845
   -36.5915 -36.5914 -36.5914 -36.5914 -36.5913 -36.5904 -36.5904 -36.5903
   -36.5498 -36.5497 -36.5497 -36.5495 -36.5495 -36.5494 -36.5494 -36.5494
   -36.5460 -36.5455 -36.5454 -36.5454 -16.6487 -16.6482 -16.6476 -16.6473
   -16.6460 -16.6338 -16.6337 -16.6336 -16.5181 -16.5156 -16.5155 -16.5155
   -16.5078 -16.5068 -16.5066 -16.5024 -16.5021 -16.5017 -16.5012 -16.5000
   -16.3246 -16.3244 -16.3242 -16.3115 -16.2783 -16.2781 -16.2778 -16.2699
   -16.2662 -16.2497 -16.2494 -16.2492 -16.2211 -16.2210 -16.2209 -16.2125
   -16.2115 -16.2067 -16.2065 -16.2064 -16.0496 -16.0489 -16.0481 -16.0110
   -15.9883 -15.9869 -15.9670 -15.9668 -15.9665 -15.9656 -15.9642 -15.9637
   -15.9282 -15.9281 -15.9279 -15.9166 -15.9166 -15.9163 -15.9159 -15.9156
   -13.5129 -12.8156 -12.3251 -12.2128 -12.1038 -11.9028 -11.8445 -11.8002
   -11.4843 -11.1864 -11.1827 -11.1823  -7.9715  -7.8187  -7.7784  -7.7298
    -7.4571  -7.3449  -7.2287  -6.5669  -6.5374  -6.4995  -6.1784  -4.4273
    -4.3873  -4.3871  -4.1884  -3.9489  -3.8518  -3.7326  -3.6679  -3.5263
    -3.2400  -3.0458  -3.0037  -2.9908  -2.9736  -2.8496  -2.8108  -2.8034
    -2.5664  -2.4274  -2.3010  -2.2953  -2.2818  -2.0542  -1.9787  -1.6963
    -1.5915  -1.4815  -1.1768  -1.0610  -0.9199  -0.7185  -0.4238   0.1175
     0.3331   0.4044   0.6640   0.6740   0.8151   0.8966   0.9787   1.2097
     1.2549   1.5485   1.6466   1.7218   1.7648   1.8062   1.8614   2.3776
     2.7212   2.7530   2.8510   2.9231   2.9280   3.0982   3.2304   3.2793
     3.3154   3.3367

          k = 0.1500 0.2598 0.0000 (186586 PWs)   bands (ev):

   -37.2361 -37.2360 -37.2360 -37.2360 -37.2359 -37.2354 -37.2354 -37.2354
   -37.0470 -37.0468 -37.0468 -37.0467 -37.0457 -37.0457 -37.0456 -37.0455
   -36.9871 -36.9868 -36.9868 -36.9867 -36.7189 -36.7185 -36.7185 -36.7184
   -36.7074 -36.7073 -36.7073 -36.7070 -36.7070 -36.7070 -36.7070 -36.7070
   -36.6856 -36.6855 -36.6855 -36.6854 -36.6854 -36.6846 -36.6846 -36.6846
   -36.5914 -36.5914 -36.5914 -36.5913 -36.5912 -36.5904 -36.5904 -36.5904
   -36.5498 -36.5497 -36.5497 -36.5495 -36.5494 -36.5494 -36.5494 -36.5494
   -36.5459 -36.5455 -36.5455 -36.5454 -16.6481 -16.6481 -16.6473 -16.6463
   -16.6449 -16.6348 -16.6348 -16.6345 -16.5178 -16.5157 -16.5157 -16.5154
   -16.5076 -16.5063 -16.5063 -16.5022 -16.5021 -16.5021 -16.5013 -16.5006
   -16.3234 -16.3225 -16.3225 -16.3117 -16.2791 -16.2782 -16.2782 -16.2717
   -16.2644 -16.2505 -16.2505 -16.2497 -16.2203 -16.2203 -16.2200 -16.2134
   -16.2113 -16.2079 -16.2073 -16.2073 -16.0490 -16.0461 -16.0461 -16.0153
   -15.9866 -15.9838 -15.9692 -15.9692 -15.9670 -15.9655 -15.9655 -15.9636
   -15.9276 -15.9273 -15.9273 -15.9178 -15.9177 -15.9164 -15.9164 -15.9158
   -13.4329 -12.7454 -12.4008 -12.4008 -12.0286 -11.9416 -11.9416 -11.7656
   -11.4512 -11.1878 -11.1878 -11.1807  -7.9072  -7.8087  -7.6583  -7.6583
    -7.4635  -7.0892  -7.0892  -6.5563  -6.5563  -6.4686  -6.1897  -4.5884
    -4.3913  -4.3913  -4.3692  -4.1433  -4.0068  -3.7945  -3.7945  -3.4641
    -3.4474  -3.4474  -2.9487  -2.9017  -2.9017  -2.8621  -2.7267  -2.7261
    -2.7261  -2.5619  -2.3071  -2.3016  -2.3016  -2.2275  -2.0299  -1.6767
    -1.3924  -1.3063  -1.3063  -1.0048  -1.0048  -0.9585  -0.4968   0.4411
     0.4839   0.7110   0.7110   0.7378   0.9587   0.9587   1.3364   1.3364
     1.4502   1.4823   1.6997   1.7278   1.7926   1.9310   1.9310   2.3278
     2.6012   2.8197   2.8197   2.9143   3.0095   3.0324   3.1446   3.1446
     3.2590   3.5354

          k = 0.1500 0.3753 0.0000 (186604 PWs)   bands (ev):

   -37.2361 -37.2360 -37.2360 -37.2359 -37.2359 -37.2355 -37.2355 -37.2355
   -37.0469 -37.0469 -37.0468 -37.0467 -37.0456 -37.0456 -37.0456 -37.0456
   -36.9870 -36.9868 -36.9868 -36.9867 -36.7189 -36.7186 -36.7185 -36.7184
   -36.7074 -36.7073 -36.7073 -36.7071 -36.7070 -36.7070 -36.7070 -36.7070
   -36.6856 -36.6855 -36.6855 -36.6853 -36.6853 -36.6847 -36.6847 -36.6847
   -36.5914 -36.5914 -36.5914 -36.5912 -36.5911 -36.5906 -36.5905 -36.5905
   -36.5498 -36.5497 -36.5497 -36.5495 -36.5495 -36.5495 -36.5494 -36.5494
   -36.5459 -36.5455 -36.5455 -36.5454 -16.6480 -16.6474 -16.6472 -16.6447
   -16.6434 -16.6364 -16.6360 -16.6358 -16.5174 -16.5159 -16.5157 -16.5154
   -16.5072 -16.5060 -16.5056 -16.5028 -16.5022 -16.5018 -16.5017 -16.5012
   -16.3220 -16.3207 -16.3200 -16.3123 -16.2799 -16.2789 -16.2782 -16.2739
   -16.2619 -16.2523 -16.2514 -16.2503 -16.2193 -16.2193 -16.2186 -16.2145
   -16.2110 -16.2094 -16.2085 -16.2083 -16.0480 -16.0439 -16.0418 -16.0209
   -15.9841 -15.9800 -15.9721 -15.9716 -15.9676 -15.9676 -15.9653 -15.9638
   -15.9267 -15.9264 -15.9260 -15.9195 -15.9190 -15.9170 -15.9164 -15.9160
   -13.3099 -12.6386 -12.6225 -12.4575 -12.0873 -11.9747 -11.9723 -11.7375
   -11.4032 -11.2130 -11.1892 -11.1787  -7.8121  -7.7864  -7.5923  -7.5462
    -7.4314  -6.9632  -6.8546  -6.5144  -6.4482  -6.3854  -6.2363  -4.7836
    -4.7209  -4.4764  -4.4123  -4.3713  -4.0125  -3.9899  -3.8834  -3.7174
    -3.6736  -3.3217  -3.0468  -2.8669  -2.8207  -2.8054  -2.7872  -2.6437
    -2.6399  -2.6201  -2.4622  -2.3647  -2.2871  -2.2086  -2.0794  -1.7514
    -1.4326  -1.2736  -1.2232  -1.0261  -0.9797  -0.8675  -0.5879  -0.0084
     0.6227   0.7778   0.8482   1.0585   1.1130   1.1939   1.2887   1.4625
     1.5306   1.7418   1.8193   1.9151   2.0870   2.1171   2.2150   2.3605
     2.5232   2.6724   2.7957   2.8958   2.9025   3.1486   3.1626   3.1638
     3.6202   3.6879

          k = 0.1500 0.4907 0.0000 (186601 PWs)   bands (ev):

   -37.2361 -37.2361 -37.2360 -37.2358 -37.2358 -37.2356 -37.2355 -37.2355
   -37.0469 -37.0469 -37.0468 -37.0468 -37.0456 -37.0456 -37.0456 -37.0456
   -36.9870 -36.9869 -36.9868 -36.9867 -36.7188 -36.7187 -36.7185 -36.7184
   -36.7073 -36.7073 -36.7072 -36.7071 -36.7071 -36.7070 -36.7070 -36.7070
   -36.6856 -36.6855 -36.6854 -36.6852 -36.6851 -36.6849 -36.6848 -36.6848
   -36.5914 -36.5914 -36.5913 -36.5911 -36.5910 -36.5907 -36.5906 -36.5906
   -36.5497 -36.5497 -36.5496 -36.5495 -36.5495 -36.5495 -36.5494 -36.5494
   -36.5458 -36.5456 -36.5455 -36.5454 -16.6478 -16.6475 -16.6463 -16.6432
   -16.6415 -16.6383 -16.6371 -16.6370 -16.5169 -16.5163 -16.5158 -16.5153
   -16.5068 -16.5059 -16.5047 -16.5033 -16.5026 -16.5022 -16.5015 -16.5015
   -16.3209 -16.3192 -16.3172 -16.3137 -16.2805 -16.2795 -16.2778 -16.2759
   -16.2589 -16.2546 -16.2520 -16.2507 -16.2185 -16.2180 -16.2173 -16.2159
   -16.2109 -16.2105 -16.2095 -16.2093 -16.0473 -16.0424 -16.0364 -16.0271
   -15.9810 -15.9760 -15.9756 -15.9734 -15.9705 -15.9680 -15.9652 -15.9639
   -15.9258 -15.9257 -15.9243 -15.9214 -15.9202 -15.9176 -15.9164 -15.9162
   -13.1480 -12.8466 -12.5006 -12.4906 -12.2551 -11.9908 -11.9454 -11.7193
   -11.3456 -11.2582 -11.1902 -11.1772  -7.7662  -7.6968  -7.5504  -7.5457
    -7.3931  -6.8804  -6.6540  -6.4661  -6.4393  -6.3517  -5.9711  -5.2036
    -4.9034  -4.7105  -4.4051  -4.3116  -4.1985  -4.1483  -3.9929  -3.9526
    -3.4885  -3.1755  -3.1693  -3.0036  -2.8131  -2.7786  -2.7410  -2.6711
    -2.5814  -2.5721  -2.4388  -2.4186  -2.2734  -2.1784  -2.0157  -1.9207
    -1.6027  -1.3299  -1.2820  -0.8621  -0.8518  -0.6908  -0.4465  -0.3663
     0.2792   0.5968   0.8817   1.0731   1.1838   1.2934   1.6258   1.7251
     1.7930   1.9588   2.0481   2.0537   2.0951   2.1467   2.2261   2.5084
     2.6109   2.6182   2.7132   3.1039   3.2454   3.2871   3.3423   3.3479
     3.8345   3.8860

          k = 0.1500 0.6062 0.0000 (186657 PWs)   bands (ev):

   -37.2361 -37.2361 -37.2359 -37.2358 -37.2357 -37.2357 -37.2355 -37.2355
   -37.0469 -37.0469 -37.0468 -37.0468 -37.0457 -37.0456 -37.0456 -37.0456
   -36.9870 -36.9869 -36.9868 -36.9867 -36.7188 -36.7187 -36.7185 -36.7184
   -36.7073 -36.7073 -36.7072 -36.7072 -36.7071 -36.7070 -36.7070 -36.7070
   -36.6855 -36.6855 -36.6854 -36.6852 -36.6850 -36.6850 -36.6848 -36.6848
   -36.5914 -36.5914 -36.5913 -36.5910 -36.5909 -36.5908 -36.5906 -36.5906
   -36.5497 -36.5497 -36.5496 -36.5496 -36.5495 -36.5495 -36.5494 -36.5494
   -36.5457 -36.5457 -36.5455 -36.5454 -16.6477 -16.6476 -16.6461 -16.6428
   -16.6404 -16.6394 -16.6375 -16.6372 -16.5167 -16.5165 -16.5158 -16.5153
   -16.5064 -16.5061 -16.5038 -16.5037 -16.5037 -16.5020 -16.5018 -16.5010
   -16.3206 -16.3189 -16.3158 -16.3147 -16.2806 -16.2796 -16.2773 -16.2767
   -16.2574 -16.2560 -16.2521 -16.2508 -16.2182 -16.2173 -16.2170 -16.2166
   -16.2113 -16.2102 -16.2098 -16.2097 -16.0471 -16.0420 -16.0334 -16.0303
   -15.9792 -15.9774 -15.9741 -15.9738 -15.9722 -15.9681 -15.9651 -15.9639
   -15.9256 -15.9254 -15.9234 -15.9224 -15.9206 -15.9177 -15.9163 -15.9162
   -13.0543 -12.9534 -12.4973 -12.4224 -12.3400 -11.9946 -11.9397 -11.7154
   -11.3155 -11.2859 -11.1904 -11.1769  -7.7613  -7.6382  -7.5852  -7.5417
    -7.3831  -6.8625  -6.5443  -6.4533  -6.4403  -6.4379  -5.7227  -5.4639
    -4.9243  -4.7656  -4.3695  -4.3022  -4.2731  -4.1957  -4.0188  -3.9874
    -3.3790  -3.2666  -3.1121  -3.0618  -2.7970  -2.7497  -2.7493  -2.7290
    -2.5776  -2.5527  -2.4231  -2.3407  -2.2709  -2.2520  -1.9680  -1.8932
    -1.7555  -1.3602  -1.2248  -0.8137  -0.7985  -0.7439  -0.4629  -0.2056
     0.0397   0.5276   0.9461   1.0129   1.2431   1.2857   1.7123   1.7822
     1.8755   2.0037   2.0329   2.0861   2.1019   2.1138   2.3176   2.4885
     2.6392   2.6425   2.7757   3.2265   3.2399   3.2679   3.4688   3.6267
     3.6433   3.8509

          k = 0.1500-0.4330 0.0000 (186606 PWs)   bands (ev):

   -37.2361 -37.2360 -37.2360 -37.2358 -37.2358 -37.2356 -37.2355 -37.2355
   -37.0469 -37.0469 -37.0468 -37.0468 -37.0457 -37.0457 -37.0456 -37.0456
   -36.9870 -36.9869 -36.9868 -36.9867 -36.7188 -36.7186 -36.7185 -36.7184
   -36.7073 -36.7073 -36.7072 -36.7071 -36.7071 -36.7070 -36.7070 -36.7070
   -36.6855 -36.6855 -36.6854 -36.6852 -36.6852 -36.6848 -36.6847 -36.6847
   -36.5914 -36.5914 -36.5913 -36.5911 -36.5910 -36.5906 -36.5906 -36.5905
   -36.5497 -36.5497 -36.5496 -36.5496 -36.5495 -36.5495 -36.5494 -36.5494
   -36.5458 -36.5456 -36.5455 -36.5454 -16.6479 -16.6475 -16.6466 -16.6440
   -16.6424 -16.6374 -16.6366 -16.6365 -16.5172 -16.5161 -16.5158 -16.5153
   -16.5065 -16.5063 -16.5048 -16.5037 -16.5030 -16.5021 -16.5017 -16.5006
   -16.3213 -16.3199 -16.3185 -16.3129 -16.2802 -16.2792 -16.2780 -16.2750
   -16.2604 -16.2534 -16.2517 -16.2505 -16.2188 -16.2187 -16.2180 -16.2152
   -16.2108 -16.2102 -16.2091 -16.2088 -16.0476 -16.0430 -16.0392 -16.0240
   -15.9826 -15.9780 -15.9739 -15.9727 -15.9689 -15.9678 -15.9652 -15.9638
   -15.9261 -15.9261 -15.9252 -15.9205 -15.9197 -15.9173 -15.9164 -15.9160
   -13.2335 -12.7356 -12.5730 -12.4772 -12.1700 -11.9833 -11.9570 -11.7269
   -11.3752 -11.2335 -11.1898 -11.1778  -7.7750  -7.7559  -7.5676  -7.5298
    -7.4106  -6.9149  -6.7581  -6.4884  -6.4424  -6.2837  -6.1978  -4.9520
    -4.8567  -4.6108  -4.4164  -4.3469  -4.0783  -4.0580  -4.0022  -3.8455
    -3.5881  -3.2482  -3.1038  -2.9074  -2.8209  -2.8136  -2.7666  -2.6049
    -2.6041  -2.5725  -2.5363  -2.3971  -2.2791  -2.1215  -2.1213  -1.8423
    -1.4408  -1.3622  -1.2769  -0.9424  -0.9071  -0.6745  -0.6375  -0.2063
     0.4906   0.7162   0.8250   1.1190   1.1198   1.2461   1.5158   1.5404
     1.7628   1.8162   1.8971   2.0270   2.1270   2.1583   2.1643   2.5151
     2.5582   2.6204   2.7405   2.9798   3.0296   3.2035   3.2311   3.2427
     3.7804   3.8162

          k = 0.1500-0.3175 0.0000 (186613 PWs)   bands (ev):

   -37.2361 -37.2360 -37.2360 -37.2359 -37.2359 -37.2355 -37.2355 -37.2354
   -37.0469 -37.0469 -37.0468 -37.0468 -37.0457 -37.0457 -37.0456 -37.0455
   -36.9871 -36.9868 -36.9868 -36.9867 -36.7189 -36.7186 -36.7185 -36.7184
   -36.7073 -36.7073 -36.7073 -36.7071 -36.7071 -36.7070 -36.7070 -36.7070
   -36.6855 -36.6855 -36.6855 -36.6853 -36.6853 -36.6847 -36.6847 -36.6846
   -36.5914 -36.5914 -36.5914 -36.5912 -36.5912 -36.5905 -36.5905 -36.5904
   -36.5498 -36.5497 -36.5497 -36.5495 -36.5495 -36.5495 -36.5494 -36.5494
   -36.5459 -36.5455 -36.5455 -36.5454 -16.6480 -16.6476 -16.6474 -16.6456
   -16.6442 -16.6356 -16.6354 -16.6351 -16.5176 -16.5158 -16.5158 -16.5154
   -16.5069 -16.5065 -16.5057 -16.5034 -16.5023 -16.5022 -16.5014 -16.5001
   -16.3227 -16.3216 -16.3213 -16.3119 -16.2795 -16.2785 -16.2782 -16.2728
   -16.2632 -16.2513 -16.2509 -16.2500 -16.2199 -16.2198 -16.2194 -16.2139
   -16.2112 -16.2086 -16.2079 -16.2078 -16.0485 -16.0450 -16.0441 -16.0180
   -15.9854 -15.9820 -15.9706 -15.9705 -15.9673 -15.9664 -15.9654 -15.9637
   -15.9271 -15.9269 -15.9267 -15.9187 -15.9184 -15.9166 -15.9164 -15.9158
   -13.3765 -12.6962 -12.5098 -12.4319 -12.0100 -11.9987 -11.9583 -11.7506
   -11.4288 -11.1977 -11.1885 -11.1797  -7.8630  -7.7980  -7.6234  -7.5935
    -7.4505  -7.0226  -6.9605  -6.5385  -6.5078  -6.4568  -6.2065  -4.6903
    -4.5236  -4.4014  -4.3857  -4.3165  -4.0180  -3.8910  -3.7428  -3.6820
    -3.5807  -3.3893  -2.9705  -2.9097  -2.8533  -2.8520  -2.6855  -2.6802
    -2.6799  -2.6666  -2.3456  -2.3328  -2.2956  -2.2702  -2.0499  -1.6851
    -1.4544  -1.2275  -1.1318  -1.1113  -1.0508  -0.9605  -0.5396   0.2105
     0.6119   0.7402   0.8797   0.9443   1.0041   1.1224   1.3094   1.3113
     1.3941   1.6725   1.7341   1.8217   2.0076   2.0294   2.0486   2.2836
     2.5401   2.7519   2.8279   2.8821   2.9500   3.0711   3.1329   3.1369
     3.4114   3.6066

          k = 0.1500-0.2021 0.0000 (186584 PWs)   bands (ev):

   -37.2361 -37.2360 -37.2360 -37.2360 -37.2360 -37.2354 -37.2354 -37.2354
   -37.0469 -37.0468 -37.0468 -37.0467 -37.0457 -37.0457 -37.0456 -37.0455
   -36.9871 -36.9868 -36.9868 -36.9867 -36.7190 -36.7185 -36.7185 -36.7184
   -36.7074 -36.7073 -36.7073 -36.7071 -36.7070 -36.7070 -36.7070 -36.7069
   -36.6855 -36.6855 -36.6855 -36.6854 -36.6854 -36.6846 -36.6846 -36.6845
   -36.5914 -36.5914 -36.5914 -36.5913 -36.5913 -36.5904 -36.5904 -36.5904
   -36.5498 -36.5497 -36.5497 -36.5495 -36.5495 -36.5495 -36.5494 -36.5494
   -36.5460 -36.5455 -36.5454 -36.5454 -16.6483 -16.6482 -16.6473 -16.6471
   -16.6456 -16.6343 -16.6342 -16.6340 -16.5180 -16.5157 -16.5156 -16.5154
   -16.5074 -16.5067 -16.5064 -16.5029 -16.5024 -16.5017 -16.5012 -16.4998
   -16.3241 -16.3236 -16.3234 -16.3115 -16.2787 -16.2781 -16.2779 -16.2707
   -16.2654 -16.2500 -16.2499 -16.2494 -16.2208 -16.2207 -16.2205 -16.2129
   -16.2114 -16.2072 -16.2069 -16.2069 -16.0494 -16.0477 -16.0471 -16.0130
   -15.9876 -15.9855 -15.9680 -15.9680 -15.9667 -15.9655 -15.9647 -15.9636
   -15.9279 -15.9277 -15.9277 -15.9172 -15.9172 -15.9163 -15.9160 -15.9156
   -13.4784 -12.7853 -12.3649 -12.2999 -12.0640 -11.9229 -11.8856 -11.7822
   -11.4699 -11.1870 -11.1831 -11.1817  -7.9437  -7.8159  -7.7241  -7.6949
    -7.4663  -7.2247  -7.1594  -6.5659  -6.5564  -6.4830  -6.1815  -4.4948
    -4.3913  -4.3865  -4.2595  -4.0175  -3.9153  -3.8298  -3.7150  -3.4932
    -3.3289  -3.2460  -2.9797  -2.9515  -2.9441  -2.7836  -2.7701  -2.7654
    -2.7219  -2.4819  -2.3063  -2.3036  -2.2902  -2.1196  -2.0126  -1.6910
    -1.4627  -1.3973  -1.2883  -1.0373  -0.9521  -0.8272  -0.4557   0.3028
     0.5266   0.5309   0.6662   0.6893   0.7842   0.9229   1.1950   1.2899
     1.4238   1.4583   1.6246   1.7453   1.7466   1.8396   1.8626   2.3609
     2.6692   2.7872   2.8499   2.9499   3.0017   3.0122   3.1825   3.1986
     3.2489   3.4443

          k = 0.1500-0.0866 0.0000 (186522 PWs)   bands (ev):

   -37.2361 -37.2361 -37.2360 -37.2360 -37.2360 -37.2354 -37.2353 -37.2353
   -37.0470 -37.0468 -37.0468 -37.0467 -37.0457 -37.0457 -37.0456 -37.0455
   -36.9871 -36.9868 -36.9867 -36.9867 -36.7190 -36.7185 -36.7185 -36.7185
   -36.7074 -36.7073 -36.7073 -36.7070 -36.7070 -36.7070 -36.7070 -36.7069
   -36.6856 -36.6855 -36.6855 -36.6855 -36.6855 -36.6845 -36.6845 -36.6845
   -36.5915 -36.5914 -36.5914 -36.5914 -36.5913 -36.5903 -36.5903 -36.5903
   -36.5498 -36.5497 -36.5497 -36.5495 -36.5495 -36.5495 -36.5494 -36.5493
   -36.5460 -36.5454 -36.5454 -36.5454 -16.6487 -16.6482 -16.6482 -16.6472
   -16.6464 -16.6335 -16.6334 -16.6334 -16.5182 -16.5157 -16.5155 -16.5155
   -16.5077 -16.5068 -16.5068 -16.5025 -16.5025 -16.5014 -16.5012 -16.4996
   -16.3250 -16.3250 -16.3247 -16.3115 -16.2780 -16.2780 -16.2777 -16.2694
   -16.2667 -16.2493 -16.2491 -16.2491 -16.2213 -16.2213 -16.2213 -16.2123
   -16.2116 -16.2063 -16.2063 -16.2062 -16.0498 -16.0498 -16.0488 -16.0096
   -15.9889 -15.9879 -15.9663 -15.9663 -15.9661 -15.9655 -15.9639 -15.9639
   -15.9283 -15.9283 -15.9283 -15.9164 -15.9163 -15.9163 -15.9158 -15.9155
   -13.5360 -12.8360 -12.2822 -12.1469 -12.1469 -11.8817 -11.8194 -11.8194
   -11.4941 -11.1856 -11.1835 -11.1835  -7.9903  -7.8150  -7.8150  -7.7611
    -7.4344  -7.4344  -7.2939  -6.5610  -6.5169  -6.5169  -6.1777  -4.3911
    -4.3911  -4.3818  -4.1471  -3.8642  -3.8642  -3.6630  -3.5469  -3.5469
    -3.2051  -3.0172  -3.0172  -2.9909  -2.9070  -2.8844  -2.8410  -2.8410
    -2.4676  -2.3517  -2.2955  -2.2802  -2.2802  -2.0373  -1.9368  -1.6849
    -1.6849  -1.5545  -1.0771  -1.0771  -0.9131  -0.6390  -0.4032  -0.0321
     0.1799   0.3529   0.6151   0.6643   0.6643   0.8792   0.8792   1.2313
     1.2313   1.5738   1.6345   1.7126   1.7126   1.7625   1.9717   2.3816
     2.7357   2.7411   2.8433   2.8433   2.9442   3.1833   3.2588   3.2799
     3.3544   3.3988

          k = 0.1500 0.0289 0.0000 (186480 PWs)   bands (ev):

   -37.2361 -37.2361 -37.2361 -37.2360 -37.2360 -37.2353 -37.2353 -37.2353
   -37.0470 -37.0468 -37.0468 -37.0467 -37.0457 -37.0457 -37.0456 -37.0455
   -36.9871 -36.9868 -36.9868 -36.9867 -36.7190 -36.7185 -36.7185 -36.7185
   -36.7074 -36.7073 -36.7073 -36.7070 -36.7070 -36.7070 -36.7070 -36.7069
   -36.6856 -36.6856 -36.6855 -36.6855 -36.6855 -36.6845 -36.6845 -36.6845
   -36.5915 -36.5914 -36.5914 -36.5914 -36.5914 -36.5903 -36.5903 -36.5903
   -36.5498 -36.5497 -36.5497 -36.5495 -36.5495 -36.5495 -36.5494 -36.5494
   -36.5460 -36.5454 -36.5454 -36.5454 -16.6488 -16.6484 -16.6483 -16.6472
   -16.6465 -16.6333 -16.6333 -16.6332 -16.5182 -16.5156 -16.5155 -16.5154
   -16.5079 -16.5070 -16.5068 -16.5025 -16.5022 -16.5013 -16.5012 -16.4997
   -16.3253 -16.3252 -16.3250 -16.3114 -16.2780 -16.2778 -16.2777 -16.2691
   -16.2670 -16.2491 -16.2490 -16.2489 -16.2214 -16.2214 -16.2214 -16.2121
   -16.2116 -16.2062 -16.2061 -16.2060 -16.0502 -16.0497 -16.0494 -16.0088
   -15.9893 -15.9883 -15.9662 -15.9661 -15.9660 -15.9648 -15.9643 -15.9638
   -15.9285 -15.9285 -15.9283 -15.9163 -15.9161 -15.9159 -15.9159 -15.9155
   -13.5475 -12.8462 -12.2374 -12.1918 -12.1105 -11.8605 -11.8396 -11.8083
   -11.4991 -11.1850 -11.1848 -11.1843  -7.9998  -7.8326  -7.8045  -7.7862
    -7.4826  -7.3990  -7.3513  -6.5493  -6.5341  -6.5045  -6.1777  -4.3941
    -4.3782  -4.3772  -4.1284  -3.8699  -3.7745  -3.7019  -3.5568  -3.3800
    -3.2545  -3.0302  -3.0211  -3.0108  -2.9103  -2.8792  -2.8567  -2.7863
    -2.4609  -2.2888  -2.2832  -2.2698  -2.2539  -2.0323  -1.9270  -1.7347
    -1.6571  -1.6131  -1.0851  -0.9944  -0.9397  -0.5888  -0.4023  -0.1144
     0.0937   0.3830   0.4921   0.6416   0.6597   0.7377   0.8706   1.2195
     1.3899   1.5156   1.6257   1.6857   1.7160   1.7330   2.0329   2.3789
     2.7393   2.7455   2.7831   2.8375   2.9908   3.1427   3.3082   3.3242
     3.3534   3.3752

          k = 0.2500 0.2021 0.0000 (186601 PWs)   bands (ev):

   -37.2361 -37.2361 -37.2360 -37.2360 -37.2359 -37.2355 -37.2354 -37.2354
   -37.0469 -37.0469 -37.0468 -37.0467 -37.0457 -37.0457 -37.0456 -37.0455
   -36.9871 -36.9868 -36.9868 -36.9867 -36.7189 -36.7186 -36.7185 -36.7184
   -36.7074 -36.7073 -36.7073 -36.7070 -36.7070 -36.7070 -36.7070 -36.7070
   -36.6856 -36.6856 -36.6855 -36.6854 -36.6854 -36.6847 -36.6846 -36.6846
   -36.5914 -36.5914 -36.5913 -36.5913 -36.5912 -36.5905 -36.5904 -36.5904
   -36.5498 -36.5497 -36.5497 -36.5495 -36.5495 -36.5494 -36.5494 -36.5494
   -36.5459 -36.5455 -36.5454 -36.5454 -16.6485 -16.6474 -16.6472 -16.6464
   -16.6446 -16.6353 -16.6348 -16.6348 -16.5177 -16.5158 -16.5155 -16.5155
   -16.5075 -16.5065 -16.5059 -16.5026 -16.5021 -16.5019 -16.5016 -16.5005
   -16.3230 -16.3226 -16.3217 -16.3118 -16.2791 -16.2788 -16.2778 -16.2721
   -16.2639 -16.2512 -16.2502 -16.2499 -16.2202 -16.2200 -16.2198 -16.2136
   -16.2112 -16.2080 -16.2078 -16.2074 -16.0483 -16.0471 -16.0443 -16.0165
   -15.9857 -15.9834 -15.9692 -15.9690 -15.9679 -15.9678 -15.9640 -15.9636
   -15.9274 -15.9273 -15.9268 -15.9182 -15.9176 -15.9171 -15.9160 -15.9158
   -13.4103 -12.7256 -12.5366 -12.2513 -12.0988 -12.0299 -11.8536 -11.7844
   -11.4422 -11.2026 -11.1778 -11.1774  -7.8894  -7.7781  -7.7162  -7.5963
    -7.3785  -7.2220  -6.9628  -6.5377  -6.5052  -6.4921  -6.1961  -4.5502
    -4.4350  -4.4213  -4.4205  -4.1257  -4.0320  -4.0131  -3.8387  -3.5720
    -3.5652  -3.1723  -2.9241  -2.9021  -2.8738  -2.8609  -2.7145  -2.7004
    -2.6952  -2.6767  -2.3291  -2.3289  -2.2747  -2.1638  -2.0678  -1.6012
    -1.4487  -1.3554  -1.2099  -1.1342  -1.0497  -0.8625  -0.4830   0.4649
     0.4720   0.4725   0.7340   0.7425   0.7826   1.2216   1.3787   1.4485
     1.4638   1.6447   1.7022   1.7912   1.8647   1.9102   1.9979   2.3214
     2.5658   2.6877   2.9466   2.9886   3.0070   3.1150   3.1381   3.1717
     3.2641   3.4957

          k = 0.2500 0.3175 0.0000 (186604 PWs)   bands (ev):

   -37.2361 -37.2360 -37.2360 -37.2359 -37.2359 -37.2355 -37.2355 -37.2355
   -37.0469 -37.0469 -37.0468 -37.0467 -37.0456 -37.0456 -37.0456 -37.0456
   -36.9870 -36.9868 -36.9868 -36.9867 -36.7189 -36.7186 -36.7185 -36.7184
   -36.7074 -36.7073 -36.7073 -36.7071 -36.7070 -36.7070 -36.7070 -36.7070
   -36.6856 -36.6855 -36.6855 -36.6853 -36.6853 -36.6847 -36.6847 -36.6847
   -36.5914 -36.5914 -36.5914 -36.5912 -36.5911 -36.5906 -36.5905 -36.5905
   -36.5498 -36.5497 -36.5497 -36.5495 -36.5495 -36.5495 -36.5494 -36.5494
   -36.5459 -36.5455 -36.5455 -36.5454 -16.6480 -16.6474 -16.6472 -16.6447
   -16.6434 -16.6364 -16.6360 -16.6358 -16.5174 -16.5159 -16.5157 -16.5154
   -16.5072 -16.5060 -16.5056 -16.5028 -16.5022 -16.5018 -16.5017 -16.5012
   -16.3220 -16.3207 -16.3200 -16.3123 -16.2799 -16.2789 -16.2782 -16.2739
   -16.2619 -16.2523 -16.2514 -16.2503 -16.2193 -16.2193 -16.2186 -16.2145
   -16.2110 -16.2094 -16.2085 -16.2083 -16.0480 -16.0439 -16.0418 -16.0209
   -15.9841 -15.9800 -15.9721 -15.9716 -15.9676 -15.9676 -15.9653 -15.9638
   -15.9267 -15.9264 -15.9260 -15.9195 -15.9190 -15.9170 -15.9164 -15.9160
   -13.3099 -12.6386 -12.6225 -12.4575 -12.0873 -11.9747 -11.9723 -11.7375
   -11.4032 -11.2130 -11.1892 -11.1787  -7.8121  -7.7864  -7.5923  -7.5462
    -7.4314  -6.9632  -6.8546  -6.5144  -6.4482  -6.3854  -6.2363  -4.7836
    -4.7209  -4.4764  -4.4123  -4.3713  -4.0125  -3.9899  -3.8834  -3.7174
    -3.6736  -3.3217  -3.0468  -2.8669  -2.8207  -2.8054  -2.7872  -2.6437
    -2.6399  -2.6201  -2.4622  -2.3647  -2.2871  -2.2086  -2.0794  -1.7514
    -1.4326  -1.2736  -1.2232  -1.0261  -0.9797  -0.8675  -0.5879  -0.0084
     0.6227   0.7778   0.8482   1.0585   1.1130   1.1939   1.2887   1.4625
     1.5306   1.7418   1.8193   1.9151   2.0870   2.1171   2.2150   2.3605
     2.5232   2.6724   2.7957   2.8958   2.9025   3.1486   3.1626   3.1638
     3.6202   3.6880

          k = 0.2500 0.4330 0.0000 (186666 PWs)   bands (ev):

   -37.2361 -37.2360 -37.2360 -37.2358 -37.2358 -37.2356 -37.2356 -37.2355
   -37.0469 -37.0468 -37.0468 -37.0468 -37.0456 -37.0456 -37.0456 -37.0456
   -36.9870 -36.9869 -36.9868 -36.9867 -36.7188 -36.7186 -36.7186 -36.7184
   -36.7073 -36.7073 -36.7073 -36.7071 -36.7071 -36.7070 -36.7070 -36.7070
   -36.6855 -36.6855 -36.6855 -36.6851 -36.6851 -36.6848 -36.6848 -36.6848
   -36.5914 -36.5914 -36.5914 -36.5910 -36.5910 -36.5906 -36.5906 -36.5906
   -36.5497 -36.5497 -36.5497 -36.5495 -36.5495 -36.5495 -36.5494 -36.5494
   -36.5458 -36.5456 -36.5456 -36.5453 -16.6474 -16.6472 -16.6472 -16.6428
   -16.6418 -16.6375 -16.6375 -16.6372 -16.5170 -16.5160 -16.5160 -16.5153
   -16.5068 -16.5054 -16.5054 -16.5035 -16.5022 -16.5018 -16.5018 -16.5018
   -16.3210 -16.3183 -16.3183 -16.3133 -16.2805 -16.2787 -16.2787 -16.2758
   -16.2593 -16.2531 -16.2531 -16.2506 -16.2184 -16.2184 -16.2171 -16.2156
   -16.2111 -16.2107 -16.2093 -16.2093 -16.0476 -16.0396 -16.0396 -16.0262
   -15.9820 -15.9760 -15.9747 -15.9747 -15.9674 -15.9674 -15.9671 -15.9643
   -15.9256 -15.9252 -15.9252 -15.9211 -15.9205 -15.9169 -15.9169 -15.9162
   -13.1690 -12.6794 -12.6794 -12.5182 -12.1265 -12.1265 -11.8753 -11.7151
   -11.3526 -11.2210 -11.2210 -11.1820  -7.7840  -7.7106  -7.5192  -7.5192
    -7.4486  -6.7705  -6.7705  -6.4195  -6.3291  -6.2550  -6.2550  -5.1249
    -4.9626  -4.7553  -4.3721  -4.3721  -4.1532  -3.9653  -3.8243  -3.8243
    -3.5401  -3.5401  -3.2058  -2.9013  -2.8219  -2.8062  -2.8062  -2.7997
    -2.5869  -2.5096  -2.5096  -2.3994  -2.1414  -2.1414  -2.1333  -1.9689
    -1.5389  -1.3203  -1.0758  -1.0758  -0.7235  -0.6628  -0.6628  -0.4408
     0.4169   0.9839   0.9839   1.2316   1.4184   1.4184   1.4830   1.6220
     1.6220   1.6880   1.9374   2.0852   2.1033   2.1606   2.1606   2.4912
     2.5115   2.7028   2.7028   2.8661   3.1696   3.1696   3.2599   3.3431
     3.7943   3.7954

          k = 0.2500 0.5485 0.0000 (186632 PWs)   bands (ev):

   -37.2360 -37.2360 -37.2360 -37.2357 -37.2357 -37.2357 -37.2356 -37.2356
   -37.0469 -37.0469 -37.0468 -37.0468 -37.0457 -37.0456 -37.0456 -37.0456
   -36.9869 -36.9869 -36.9869 -36.9867 -36.7187 -36.7187 -36.7186 -36.7184
   -36.7073 -36.7073 -36.7072 -36.7071 -36.7071 -36.7070 -36.7070 -36.7070
   -36.6855 -36.6855 -36.6855 -36.6851 -36.6850 -36.6849 -36.6849 -36.6849
   -36.5914 -36.5914 -36.5913 -36.5909 -36.5909 -36.5908 -36.5907 -36.5907
   -36.5497 -36.5497 -36.5496 -36.5495 -36.5495 -36.5495 -36.5494 -36.5494
   -36.5457 -36.5457 -36.5456 -36.5453 -16.6473 -16.6473 -16.6467 -16.6413
   -16.6401 -16.6392 -16.6386 -16.6381 -16.5165 -16.5164 -16.5161 -16.5153
   -16.5063 -16.5054 -16.5046 -16.5041 -16.5032 -16.5021 -16.5016 -16.5013
   -16.3205 -16.3174 -16.3160 -16.3149 -16.2809 -16.2790 -16.2780 -16.2774
   -16.2567 -16.2554 -16.2536 -16.2508 -16.2178 -16.2173 -16.2168 -16.2159
   -16.2125 -16.2103 -16.2100 -16.2099 -16.0474 -16.0384 -16.0344 -16.0317
   -15.9794 -15.9778 -15.9760 -15.9721 -15.9704 -15.9674 -15.9668 -15.9648
   -15.9248 -15.9246 -15.9237 -15.9228 -15.9217 -15.9171 -15.9166 -15.9165
   -12.9926 -12.8934 -12.7043 -12.3714 -12.2913 -12.1440 -11.8213 -11.7134
   -11.2966 -11.2691 -11.2247 -11.1843  -7.7812  -7.6024  -7.5564  -7.5099
    -7.4493  -6.7272  -6.5838  -6.4876  -6.4082  -6.1817  -5.8257  -5.5903
    -5.0381  -4.8931  -4.3554  -4.3329  -4.3166  -3.9363  -3.8977  -3.6933
    -3.5737  -3.4395  -3.3050  -3.1633  -2.8990  -2.8729  -2.8075  -2.7579
    -2.5662  -2.4388  -2.3795  -2.3256  -2.2457  -2.1228  -2.1079  -1.9329
    -1.8093  -1.1516  -1.1509  -0.9373  -0.8669  -0.7430  -0.5216  -0.2280
    -0.0032   0.8617   1.1350   1.2040   1.5882   1.6245   1.7017   1.7289
     1.8105   1.9687   1.9903   2.0042   2.0424   2.1607   2.1927   2.4598
     2.6220   2.6753   2.6905   2.9929   3.0799   3.0924   3.4091   3.4984
     3.6087   3.8595

          k = 0.2500 0.6640 0.0000 (186642 PWs)   bands (ev):

   -37.2361 -37.2360 -37.2360 -37.2358 -37.2357 -37.2356 -37.2356 -37.2355
   -37.0469 -37.0469 -37.0468 -37.0468 -37.0457 -37.0457 -37.0456 -37.0456
   -36.9870 -36.9869 -36.9869 -36.9867 -36.7188 -36.7186 -36.7186 -36.7184
   -36.7073 -36.7073 -36.7072 -36.7072 -36.7071 -36.7070 -36.7070 -36.7070
   -36.6855 -36.6855 -36.6855 -36.6851 -36.6851 -36.6849 -36.6849 -36.6848
   -36.5914 -36.5914 -36.5913 -36.5910 -36.5909 -36.5907 -36.5907 -36.5906
   -36.5497 -36.5497 -36.5496 -36.5496 -36.5495 -36.5495 -36.5494 -36.5494
   -36.5457 -36.5456 -36.5456 -36.5453 -16.6473 -16.6472 -16.6469 -16.6420
   -16.6410 -16.6384 -16.6380 -16.6379 -16.5168 -16.5161 -16.5161 -16.5153
   -16.5060 -16.5057 -16.5043 -16.5042 -16.5039 -16.5024 -16.5014 -16.5008
   -16.3207 -16.3177 -16.3171 -16.3140 -16.2808 -16.2789 -16.2784 -16.2767
   -16.2579 -16.2542 -16.2534 -16.2508 -16.2180 -16.2179 -16.2164 -16.2161
   -16.2119 -16.2105 -16.2097 -16.2096 -16.0474 -16.0388 -16.0371 -16.0289
   -15.9807 -15.9763 -15.9756 -15.9741 -15.9688 -15.9674 -15.9669 -15.9646
   -15.9250 -15.9249 -15.9244 -15.9220 -15.9213 -15.9170 -15.9168 -15.9163
   -13.0848 -12.7885 -12.6960 -12.4475 -12.2089 -12.1381 -11.8407 -11.7128
   -11.3247 -11.2435 -11.2234 -11.1835  -7.7822  -7.6556  -7.5256  -7.5129
    -7.4496  -6.7423  -6.6805  -6.4118  -6.4009  -6.2076  -6.0510  -5.3542
    -5.0137  -4.8453  -4.3712  -4.3484  -4.2499  -3.9466  -3.8747  -3.7054
[...]
     1.5747   1.7042   1.8897   2.0207   2.1501   2.1563   2.1583   2.4945
     2.5172   2.6816   2.7298   2.8597   3.0297   3.1700   3.1720   3.1996
     3.7514   3.8555

          k = 0.4500 0.0866 0.0000 (186606 PWs)   bands (ev):

   -37.2361 -37.2360 -37.2360 -37.2358 -37.2358 -37.2356 -37.2355 -37.2355
   -37.0469 -37.0469 -37.0468 -37.0468 -37.0457 -37.0457 -37.0456 -37.0456
   -36.9870 -36.9869 -36.9868 -36.9867 -36.7188 -36.7186 -36.7185 -36.7184
   -36.7073 -36.7073 -36.7072 -36.7071 -36.7071 -36.7070 -36.7070 -36.7070
   -36.6855 -36.6855 -36.6854 -36.6852 -36.6852 -36.6848 -36.6847 -36.6847
   -36.5914 -36.5914 -36.5913 -36.5911 -36.5910 -36.5906 -36.5906 -36.5905
   -36.5497 -36.5497 -36.5496 -36.5496 -36.5495 -36.5495 -36.5494 -36.5494
   -36.5458 -36.5456 -36.5455 -36.5454 -16.6479 -16.6475 -16.6466 -16.6440
   -16.6424 -16.6374 -16.6366 -16.6365 -16.5172 -16.5161 -16.5158 -16.5153
   -16.5065 -16.5063 -16.5048 -16.5037 -16.5030 -16.5021 -16.5017 -16.5006
   -16.3213 -16.3199 -16.3185 -16.3129 -16.2802 -16.2792 -16.2780 -16.2750
   -16.2604 -16.2534 -16.2517 -16.2505 -16.2188 -16.2187 -16.2180 -16.2152
   -16.2108 -16.2102 -16.2091 -16.2088 -16.0476 -16.0430 -16.0392 -16.0240
   -15.9826 -15.9780 -15.9739 -15.9727 -15.9689 -15.9678 -15.9652 -15.9638
   -15.9261 -15.9261 -15.9252 -15.9205 -15.9197 -15.9173 -15.9164 -15.9160
   -13.2335 -12.7356 -12.5730 -12.4772 -12.1700 -11.9833 -11.9570 -11.7269
   -11.3752 -11.2335 -11.1898 -11.1778  -7.7750  -7.7559  -7.5676  -7.5298
    -7.4105  -6.9149  -6.7581  -6.4884  -6.4424  -6.2837  -6.1978  -4.9520
    -4.8567  -4.6108  -4.4164  -4.3469  -4.0783  -4.0580  -4.0022  -3.8455
    -3.5881  -3.2482  -3.1038  -2.9074  -2.8209  -2.8136  -2.7666  -2.6049
    -2.6041  -2.5725  -2.5363  -2.3971  -2.2791  -2.1215  -2.1213  -1.8423
    -1.4408  -1.3622  -1.2769  -0.9424  -0.9071  -0.6745  -0.6375  -0.2063
     0.4906   0.7162   0.8250   1.1190   1.1198   1.2461   1.5158   1.5404
     1.7628   1.8162   1.8971   2.0270   2.1270   2.1583   2.1643   2.5151
     2.5582   2.6204   2.7405   2.9798   3.0296   3.2035   3.2311   3.2427
     3.7802   3.8162

          k = 0.4500 0.2021 0.0000 (186681 PWs)   bands (ev):

   -37.2361 -37.2361 -37.2359 -37.2359 -37.2358 -37.2356 -37.2355 -37.2355
   -37.0469 -37.0469 -37.0468 -37.0468 -37.0457 -37.0456 -37.0456 -37.0456
   -36.9870 -36.9869 -36.9868 -36.9867 -36.7188 -36.7187 -36.7185 -36.7184
   -36.7073 -36.7073 -36.7072 -36.7071 -36.7071 -36.7070 -36.7070 -36.7070
   -36.6856 -36.6856 -36.6853 -36.6853 -36.6851 -36.6849 -36.6847 -36.6847
   -36.5914 -36.5914 -36.5912 -36.5912 -36.5910 -36.5907 -36.5905 -36.5905
   -36.5497 -36.5497 -36.5496 -36.5496 -36.5495 -36.5494 -36.5494 -36.5494
   -36.5458 -36.5456 -36.5454 -36.5454 -16.6481 -16.6477 -16.6454 -16.6444
   -16.6416 -16.6383 -16.6366 -16.6365 -16.5170 -16.5163 -16.5156 -16.5154
   -16.5066 -16.5064 -16.5044 -16.5032 -16.5030 -16.5023 -16.5016 -16.5009
   -16.3208 -16.3203 -16.3173 -16.3136 -16.2802 -16.2799 -16.2773 -16.2754
   -16.2594 -16.2549 -16.2511 -16.2508 -16.2185 -16.2181 -16.2181 -16.2158
   -16.2104 -16.2101 -16.2096 -16.2091 -16.0465 -16.0449 -16.0361 -16.0263
   -15.9802 -15.9778 -15.9743 -15.9722 -15.9714 -15.9696 -15.9639 -15.9635
   -15.9262 -15.9262 -15.9243 -15.9212 -15.9192 -15.9183 -15.9161 -15.9160
   -13.1800 -12.8763 -12.5277 -12.2878 -12.2791 -12.1009 -11.8628 -11.7686
   -11.3566 -11.2662 -11.1729 -11.1707  -7.7194  -7.7189  -7.6387  -7.5583
    -7.2625  -7.0711  -6.6425  -6.5273  -6.4877  -6.3307  -5.9352  -5.1348
    -4.7201  -4.5113  -4.4864  -4.4240  -4.2705  -4.1727  -4.1366  -4.0647
    -3.3300  -3.0727  -3.0644  -3.0108  -2.7729  -2.7461  -2.6914  -2.5791
    -2.5652  -2.4927  -2.4391  -2.4359  -2.3917  -2.2293  -2.0150  -1.7440
    -1.5818  -1.5423  -1.2295  -1.0836  -0.7459  -0.6068  -0.4674  -0.0663
     0.2367   0.2603   0.6491   0.9031   0.9308   1.0467   1.8371   1.8523
     1.9023   1.9224   2.0676   2.0845   2.1141   2.1473   2.3760   2.4859
     2.5483   2.6093   2.8073   3.0307   3.2706   3.2950   3.4826   3.5289
     3.6941   3.8786

     the Fermi energy is    -1.6849 ev

!    total energy              =   -4146.60284442 Ry
     estimated scf accuracy    <          6.8E-11 Ry
     smearing contrib. (-TS)   =      -0.00000048 Ry
     internal energy E=F+TS    =   -4146.60284394 Ry

     The total energy is F=E-TS. E is the sum of the following terms:
     one-electron contribution =  -50028.16565008 Ry
     hartree contribution      =   25090.11210448 Ry
     xc contribution           =    -964.55148420 Ry
     ewald contribution        =   21756.00334631 Ry
     electric field correction =      -0.00116045 Ry

     convergence has been achieved in  30 iterations

     Forces acting on atoms (cartesian axes, Ry/au):

     atom    1 type  1   force =     0.00001052   -0.00000612   -0.01461889
     atom    2 type  1   force =    -0.00004346    0.00002480    0.00654232
     atom    3 type  1   force =    -0.00003787    0.00002196    0.02203959
     atom    4 type  1   force =    -0.00004332    0.00002512    0.00654229
     atom    5 type  1   force =    -0.00003764    0.00002182    0.02203996
     atom    6 type  1   force =     0.00001049   -0.00000617   -0.01461891
     atom    7 type  1   force =    -0.00004331    0.00002488    0.00654230
     atom    8 type  1   force =    -0.00003703    0.00002175    0.02203996
     atom    9 type  1   force =     0.00001032   -0.00000601   -0.01461932
     atom   10 type  1   force =    -0.00004354    0.00002521    0.00654236
     atom   11 type  1   force =    -0.00003734    0.00002166    0.02203942
     atom   12 type  1   force =     0.00001032   -0.00000603   -0.01461929
     atom   13 type  2   force =     0.00005799   -0.00003334   -0.00853844
     atom   14 type  2   force =     0.00000368   -0.00000217   -0.01418727
     atom   15 type  2   force =     0.00000916   -0.00000520    0.00876263
     atom   16 type  2   force =     0.00000906   -0.00000512    0.00876254
     atom   17 type  2   force =     0.00005752   -0.00003392   -0.00853819
     atom   18 type  2   force =     0.00000386   -0.00000210   -0.01418752
     atom   19 type  2   force =     0.00005707   -0.00003309   -0.00853813
     atom   20 type  2   force =     0.00000420   -0.00000231   -0.01418730
     atom   21 type  2   force =     0.00000869   -0.00000489    0.00876293
     atom   22 type  2   force =     0.00005784   -0.00003349   -0.00853846
     atom   23 type  2   force =     0.00000401   -0.00000236   -0.01418720
     atom   24 type  2   force =     0.00000878   -0.00000488    0.00876263
     The non-local contrib.  to forces
     atom    1 type  1   force =    -0.00008160    0.00004721    0.35551751
     atom    2 type  1   force =     0.00013595   -0.00007881   -0.08551066
     atom    3 type  1   force =     0.00001016   -0.00000557   -0.10379169
     atom    4 type  1   force =     0.00013591   -0.00007876   -0.08551060
     atom    5 type  1   force =     0.00001012   -0.00000605   -0.10379157
     atom    6 type  1   force =    -0.00008160    0.00004722    0.35551757
     atom    7 type  1   force =     0.00013655   -0.00007913   -0.08551084
     atom    8 type  1   force =     0.00000945   -0.00000534   -0.10379174
     atom    9 type  1   force =    -0.00008156    0.00004710    0.35551758
     atom   10 type  1   force =     0.00013643   -0.00007889   -0.08551125
     atom   11 type  1   force =     0.00000955   -0.00000540   -0.10379223
     atom   12 type  1   force =    -0.00008156    0.00004713    0.35551758
     atom   13 type  2   force =    -0.00019005    0.00011019   -0.04816016
     atom   14 type  2   force =    -0.00004167    0.00002381   -0.45340202
     atom   15 type  2   force =    -0.00005739    0.00003368    0.11093236
     atom   16 type  2   force =    -0.00005770    0.00003299    0.11093257
     atom   17 type  2   force =    -0.00019042    0.00011000   -0.04816031
     atom   18 type  2   force =    -0.00004115    0.00002414   -0.45340223
     atom   19 type  2   force =    -0.00019003    0.00010948   -0.04816039
     atom   20 type  2   force =    -0.00004116    0.00002408   -0.45340217
     atom   21 type  2   force =    -0.00005753    0.00003317    0.11093289
     atom   22 type  2   force =    -0.00019012    0.00011019   -0.04816020
     atom   23 type  2   force =    -0.00004177    0.00002390   -0.45340192
     atom   24 type  2   force =    -0.00005753    0.00003304    0.11093323
     The ionic contribution  to forces
     atom    1 type  1   force =     0.00000062   -0.00000103 -167.56823365
     atom    2 type  1   force =    -0.00001377   -0.00001957  -53.88644650
     atom    3 type  1   force =    -0.00001024    0.00001227   80.02791724
     atom    4 type  1   force =    -0.00000297    0.00001769  -53.88645316
     atom    5 type  1   force =     0.00000702   -0.00000737   80.02792777
     atom    6 type  1   force =     0.00000475   -0.00000180 -167.56823119
     atom    7 type  1   force =     0.00002264   -0.00003124  -53.88645601
     atom    8 type  1   force =     0.00001650    0.00002370   80.02792137
     atom    9 type  1   force =    -0.00000123    0.00000357 -167.56823276
     atom   10 type  1   force =     0.00001018    0.00000841  -53.88644934
     atom   11 type  1   force =    -0.00002147    0.00000292   80.02794471
     atom   12 type  1   force =    -0.00000448   -0.00000021 -167.56822758
     atom   13 type  2   force =    -0.00001144    0.00000988   53.88643765
     atom   14 type  2   force =     0.00000929    0.00000439  188.12656113
     atom   15 type  2   force =     0.00000361   -0.00001556 -100.58625196
     atom   16 type  2   force =     0.00000416    0.00001198 -100.58626457
     atom   17 type  2   force =    -0.00000886   -0.00002094   53.88645403
     atom   18 type  2   force =    -0.00001214   -0.00000315  188.12655812
     atom   19 type  2   force =     0.00000615    0.00001817   53.88645570
     atom   20 type  2   force =    -0.00001042   -0.00000688  188.12656606
     atom   21 type  2   force =    -0.00001530    0.00000675 -100.58623605
     atom   22 type  2   force =     0.00002291   -0.00003952   53.88643932
     atom   23 type  2   force =     0.00001303    0.00000656  188.12655919
     atom   24 type  2   force =    -0.00000852    0.00002098 -100.58625955
     The local contribution  to forces
     atom    1 type  1   force =     0.00009320   -0.00005384  167.20465817
     atom    2 type  1   force =    -0.00017738    0.00013006   53.98702025
     atom    3 type  1   force =    -0.00003939    0.00001697  -79.89024103
     atom    4 type  1   force =    -0.00018901    0.00009290   53.98702714
     atom    5 type  1   force =    -0.00005684    0.00003563  -79.89025721
     atom    6 type  1   force =     0.00008938   -0.00005240  167.20465612
     atom    7 type  1   force =    -0.00020989    0.00013845   53.98702854
     atom    8 type  1   force =    -0.00007408    0.00001004  -79.89025482
     atom    9 type  1   force =     0.00009722   -0.00005927  167.20465919
     atom   10 type  1   force =    -0.00019654    0.00009991   53.98702200
     atom   11 type  1   force =    -0.00003609    0.00003012  -79.89027132
     atom   12 type  1   force =     0.00010015   -0.00005515  167.20465453
     atom   13 type  2   force =     0.00025943   -0.00015637  -53.84072331
     atom   14 type  2   force =     0.00003854   -0.00003200 -187.68874238
     atom   15 type  2   force =     0.00006375   -0.00002230  100.48952609
     atom   16 type  2   force =     0.00006213   -0.00005109  100.48953876
     atom   17 type  2   force =     0.00026063   -0.00012255  -53.84074084
     atom   18 type  2   force =     0.00005988   -0.00002434 -187.68874039
     atom   19 type  2   force =     0.00025452   -0.00016696  -53.84074038
     atom   20 type  2   force =     0.00005472   -0.00001888 -187.68874740
     atom   21 type  2   force =     0.00008356   -0.00004596  100.48951490
     atom   22 type  2   force =     0.00023475   -0.00011161  -53.84072315
     atom   23 type  2   force =     0.00003132   -0.00003195 -187.68873802
     atom   24 type  2   force =     0.00007813   -0.00006066  100.48953846
     The core correction contribution to forces
     atom    1 type  1   force =    -0.00000316    0.00000181   -0.00043404
     atom    2 type  1   force =     0.00000941   -0.00000542   -0.00238521
     atom    3 type  1   force =     0.00000646   -0.00000371   -0.00570452
     atom    4 type  1   force =     0.00000938   -0.00000544   -0.00238520
     atom    5 type  1   force =     0.00000642   -0.00000374   -0.00570455
     atom    6 type  1   force =    -0.00000315    0.00000183   -0.00043403
     atom    7 type  1   force =     0.00000952   -0.00000552   -0.00238523
     atom    8 type  1   force =     0.00000621   -0.00000359   -0.00570453
     atom    9 type  1   force =    -0.00000307    0.00000176   -0.00043390
     atom   10 type  1   force =     0.00000955   -0.00000551   -0.00238524
     atom   11 type  1   force =     0.00000623   -0.00000360   -0.00570448
     atom   12 type  1   force =    -0.00000308    0.00000178   -0.00043390
     atom   13 type  2   force =    -0.00000681    0.00000390    0.00098825
     atom   14 type  2   force =    -0.00000056    0.00000033    0.00846761
     atom   15 type  2   force =    -0.00000154    0.00000089    0.00162964
     atom   16 type  2   force =    -0.00000155    0.00000089    0.00162964
     atom   17 type  2   force =    -0.00000677    0.00000395    0.00098825
     atom   18 type  2   force =    -0.00000057    0.00000033    0.00846763
     atom   19 type  2   force =    -0.00000666    0.00000385    0.00098826
     atom   20 type  2   force =    -0.00000064    0.00000037    0.00846761
     atom   21 type  2   force =    -0.00000153    0.00000088    0.00162973
     atom   22 type  2   force =    -0.00000669    0.00000385    0.00098826
     atom   23 type  2   force =    -0.00000063    0.00000037    0.00846764
     atom   24 type  2   force =    -0.00000152    0.00000088    0.00162974
     The Hubbard contrib.    to forces
     atom    1 type  1   force =     0.00000000    0.00000000    0.00000000
     atom    2 type  1   force =     0.00000000    0.00000000    0.00000000
     atom    3 type  1   force =     0.00000000    0.00000000    0.00000000
     atom    4 type  1   force =     0.00000000    0.00000000    0.00000000
     atom    5 type  1   force =     0.00000000    0.00000000    0.00000000
     atom    6 type  1   force =     0.00000000    0.00000000    0.00000000
     atom    7 type  1   force =     0.00000000    0.00000000    0.00000000
     atom    8 type  1   force =     0.00000000    0.00000000    0.00000000
     atom    9 type  1   force =     0.00000000    0.00000000    0.00000000
     atom   10 type  1   force =     0.00000000    0.00000000    0.00000000
     atom   11 type  1   force =     0.00000000    0.00000000    0.00000000
     atom   12 type  1   force =     0.00000000    0.00000000    0.00000000
     atom   13 type  2   force =     0.00000000    0.00000000    0.00000000
     atom   14 type  2   force =     0.00000000    0.00000000    0.00000000
     atom   15 type  2   force =     0.00000000    0.00000000    0.00000000
     atom   16 type  2   force =     0.00000000    0.00000000    0.00000000
     atom   17 type  2   force =     0.00000000    0.00000000    0.00000000
     atom   18 type  2   force =     0.00000000    0.00000000    0.00000000
     atom   19 type  2   force =     0.00000000    0.00000000    0.00000000
     atom   20 type  2   force =     0.00000000    0.00000000    0.00000000
     atom   21 type  2   force =     0.00000000    0.00000000    0.00000000
     atom   22 type  2   force =     0.00000000    0.00000000    0.00000000
     atom   23 type  2   force =     0.00000000    0.00000000    0.00000000
     atom   24 type  2   force =     0.00000000    0.00000000    0.00000000
     The SCF correction term to forces
     atom    1 type  1   force =     0.00000145   -0.00000028    0.00001189
     atom    2 type  1   force =     0.00000232   -0.00000146    0.00000322
     atom    3 type  1   force =    -0.00000486    0.00000199   -0.00000163
     atom    4 type  1   force =     0.00000336   -0.00000127    0.00000289
     atom    5 type  1   force =    -0.00000438    0.00000335    0.00000431
     atom    6 type  1   force =     0.00000111   -0.00000102    0.00001141
     atom    7 type  1   force =    -0.00000216    0.00000231    0.00000463
     atom    8 type  1   force =     0.00000488   -0.00000306    0.00000846
     atom    9 type  1   force =    -0.00000105    0.00000082    0.00000936
     atom   10 type  1   force =    -0.00000317    0.00000128    0.00000498
     atom   11 type  1   force =     0.00000444   -0.00000238    0.00000153
     atom   12 type  1   force =    -0.00000072    0.00000043    0.00000886
     atom   13 type  2   force =     0.00000685   -0.00000094    0.00000223
     atom   14 type  2   force =    -0.00000194    0.00000129    0.00001149
     atom   15 type  2   force =     0.00000072   -0.00000191    0.00000961
     atom   16 type  2   force =     0.00000201    0.00000011    0.00000924
     atom   17 type  2   force =     0.00000293   -0.00000437    0.00000378
     atom   18 type  2   force =    -0.00000219    0.00000091    0.00001244
     atom   19 type  2   force =    -0.00000693    0.00000237    0.00000179
     atom   20 type  2   force =     0.00000169   -0.00000100    0.00001169
     atom   21 type  2   force =    -0.00000054    0.00000026    0.00000456
     atom   22 type  2   force =    -0.00000302    0.00000358    0.00000042
     atom   23 type  2   force =     0.00000205   -0.00000123    0.00000900
     atom   24 type  2   force =    -0.00000181    0.00000087    0.00000386

     Total force =     0.066129     Total SCF correction =     0.000041

     Writing all to output data dir ./temp/GaAs_111_M0D001Ha.save/

     init_run     :     26.50s CPU     17.33s WALL (       1 calls)
     electrons    :   1538.83s CPU    970.81s WALL (       1 calls)
     forces       :     12.46s CPU      7.91s WALL (       1 calls)

     Called by init_run:
     wfcinit      :     16.06s CPU     10.26s WALL (       1 calls)
     potinit      :      3.69s CPU      1.94s WALL (       1 calls)
     hinit0       :      6.34s CPU      4.69s WALL (       1 calls)

     Called by electrons:
     c_bands      :   1293.83s CPU    840.52s WALL (      31 calls)
     sum_band     :    238.30s CPU    124.21s WALL (      31 calls)
     v_of_rho     :      4.53s CPU      3.76s WALL (      31 calls)
     mix_rho      :      1.50s CPU      1.57s WALL (      31 calls)

     Called by c_bands:
     init_us_2    :     16.93s CPU      8.56s WALL (     448 calls)
     init_us_2:cp :     16.92s CPU      8.56s WALL (     448 calls)
     cegterg      :   1200.52s CPU    766.16s WALL (     217 calls)

     Called by *egterg:
     cdiaghg      :     53.37s CPU     32.10s WALL (    1343 calls)
     h_psi        :    958.56s CPU    553.93s WALL (    1357 calls)
     g_psi        :      4.24s CPU      2.13s WALL (    1133 calls)

     Called by h_psi:
     h_psi:calbec :     61.76s CPU     54.87s WALL (    1357 calls)
     vloc_psi     :    829.67s CPU    433.50s WALL (    1357 calls)
     add_vuspsi   :     58.64s CPU     58.79s WALL (    1357 calls)

     General routines
     calbec       :     64.54s CPU     57.51s WALL (    1385 calls)
     fft          :      2.36s CPU      2.58s WALL (     321 calls)
     ffts         :      0.12s CPU      0.14s WALL (      31 calls)
     fftw         :    792.14s CPU    417.48s WALL (  246176 calls)

     Parallel routines

     PWSCF        :  26m20.39s CPU  16m41.55s WALL


   This run was terminated on:  18:14:33  20Mar2025            

=------------------------------------------------------------------------------=
   JOB DONE.
=------------------------------------------------------------------------------=
